
     Program PWSCF v.6.4.1 starts on 28Sep2021 at 18:33: 7 

     This program is part of the open-source Quantum ESPRESSO suite
     for quantum simulation of materials; please cite
         "P. Giannozzi et al., J. Phys.:Condens. Matter 21 395502 (2009);
         "P. Giannozzi et al., J. Phys.:Condens. Matter 29 465901 (2017);
          URL http://www.quantum-espresso.org", 
     in publications or presentations arising from this work. More details at
     http://www.quantum-espresso.org/quote

     Parallel version (MPI & OpenMP), running on      32 processor cores
     Number of MPI processes:                32
     Threads/MPI process:                     1

     MPI processes distributed on     1 nodes
     R & G space division:  proc/nbgrp/npool/nimage =      32
     Waiting for input...
     Reading input from standard input

     Current dimensions of program PWSCF are:
     Max number of different atomic species (ntypx) = 10
     Max number of k-points (npk) =  40000
     Max angular momentum in pseudopotentials (lmaxx) =  3

     Atomic positions and unit cell read from directory:
     ./Si.save/
 
     Message from routine readpp:
     file ./Si.save/Si.UPF not found

     Subspace diagonalization in iterative solution of the eigenvalue problem:
     one sub-group per band group will be used
     scalapack distributed-memory algorithm (size of sub-group:  4*  4 procs)

     Message from routine setup:
     DEPRECATED: symmetry with ibrav=0, use correct ibrav instead
 
     Parallelization info
     --------------------
     sticks:   dense  smooth     PW     G-vecs:    dense   smooth      PW
     Min          13      13      4                  185      185      35
     Max          14      14      5                  190      190      37
     Sum         433     433    151                 5985     5985    1139
 


     bravais-lattice index     =            0
     lattice parameter (alat)  =       7.2558  a.u.
     unit-cell volume          =     270.1072 (a.u.)^3
     number of atoms/cell      =            2
     number of atomic types    =            1
     number of electrons       =         8.00
     number of Kohn-Sham states=          102
     kinetic-energy cutoff     =      30.0000  Ry
     charge density cutoff     =     120.0000  Ry
     Exchange-correlation      = PBE ( 1  4  3  4 0 0)
     Using LIBXC version       =    4   3   4

     celldm(1)=   7.255773  celldm(2)=   0.000000  celldm(3)=   0.000000
     celldm(4)=   0.000000  celldm(5)=   0.000000  celldm(6)=   0.000000

     crystal axes: (cart. coord. in units of alat)
               a(1) = (   0.707107   0.707107   0.000000 )  
               a(2) = (   0.000000   0.707107   0.707107 )  
               a(3) = (   0.707107   0.000000   0.707107 )  

     reciprocal axes: (cart. coord. in units 2 pi/alat)
               b(1) = (  0.707107  0.707107 -0.707107 )  
               b(2) = ( -0.707107  0.707107  0.707107 )  
               b(3) = (  0.707107 -0.707107  0.707107 )  


     PseudoPot. # 1 for Si read from file:
     ./Si.UPF
     MD5 check sum: 4a983b2f8bd4acc3a0d3df54d7a3924d
     Pseudo is Norm-conserving, Zval =  4.0
     Generated using ONCVPSP code by D. R. Hamann
     Using radial grid of 1510 points,  4 beta functions with: 
                l(1) =   0
                l(2) =   0
                l(3) =   1
                l(4) =   1

     atomic species   valence    mass     pseudopotential
        Si             4.00     1.00000     Si( 1.00)

     48 Sym. Ops., with inversion, found (36 have fractional translation)



   Cartesian axes

     site n.     atom                  positions (alat units)
         1           Si  tau(   1) = (  -0.1767767  -0.1767767  -0.1767767  )
         2           Si  tau(   2) = (   0.1767767   0.1767767   0.1767767  )

     number of k points=    16
                       cart. coord. in units 2pi/alat
        k(    1) = (   0.0000000   0.0000000   0.0000000), wk =   0.0092593
        k(    2) = (   0.1178511  -0.1178511   0.1178511), wk =   0.0740741
        k(    3) = (   0.2357023  -0.2357023   0.2357023), wk =   0.0740741
        k(    4) = (   0.3535534  -0.3535534   0.3535534), wk =   0.0370370
        k(    5) = (  -0.0000000   0.0000000   0.2357023), wk =   0.0555556
        k(    6) = (   0.1178511  -0.1178511   0.3535534), wk =   0.2222222
        k(    7) = (   0.2357023  -0.2357023   0.4714045), wk =   0.2222222
        k(    8) = (   0.3535534  -0.3535534   0.5892557), wk =   0.2222222
        k(    9) = (   0.4714045  -0.4714045   0.7071068), wk =   0.1111111
        k(   10) = (   0.0000000  -0.0000000   0.4714045), wk =   0.0555556
        k(   11) = (   0.1178511  -0.1178511   0.5892557), wk =   0.2222222
        k(   12) = (   0.2357023  -0.2357023   0.7071068), wk =   0.1111111
        k(   13) = (   0.0000000   0.0000000   0.7071068), wk =   0.0277778
        k(   14) = (   0.2357023   0.0000000   0.4714045), wk =   0.2222222
        k(   15) = (   0.3535534  -0.1178511   0.5892557), wk =   0.2222222
        k(   16) = (   0.2357023   0.0000000   0.7071068), wk =   0.1111111

     Dense  grid:     5985 G-vectors     FFT dimensions: (  30,  30,  30)

     Estimated max dynamical RAM per process >       1.78 MB

     Estimated total dynamical RAM >      56.84 MB
     Message from routine sym_rho_init:
     some processors have no G-vectors for symmetrization

     The potential is recalculated from file :
     ./Si.save/charge-density

     Starting wfcs are    8 randomized atomic wfcs +   94 random wfcs

     Band Structure Calculation
     Davidson diagonalization with overlap

     ethr =  1.25E-12,  avg # of iterations = 14.9

     total cpu time spent up to now is        8.9 secs

     End of band structure calculation

          k = 0.0000 0.0000 0.0000 (   749 PWs)   bands (ev):

    -5.7326   6.2251   6.2251   6.2251   8.7857   8.7857   8.7857   9.5667
    13.9057  13.9057  14.1704  17.4568  17.4568  17.4568  21.6198  29.1391
    29.1391  29.1391  30.1582  30.1582  31.9124  31.9124  31.9124  35.4668
    35.4668  35.4668  40.7082  40.7082  40.7082  44.5326  44.5326  44.5691
    46.6079  46.6079  48.5209  48.5209  48.5209  50.2325  50.2325  50.2325
    50.8284  51.2596  51.2596  51.2596  51.2954  51.2954  51.2954  52.6637
    52.6637  52.6637  56.6373  57.6872  57.6872  57.6872  58.0407  58.0407
    58.0407  63.0258  63.9280  71.9700  71.9700  75.6115  75.6115  75.6115
    76.6913  76.6913  77.1403  77.1403  77.1403  77.7138  77.7138  77.7138
    78.6539  83.6157  83.6157  83.6157  85.5060  85.8708  88.7204  88.7204
    89.3581  89.3581  89.3581  90.1025  90.1025  90.1025  91.4084  91.4084
    91.4084  92.4919  92.4919  92.9926  93.6632  93.6632  93.6632  96.5093
    96.5093  96.5093  97.6937  97.6937  97.6937  98.5233

          k = 0.1179-0.1179 0.1179 (   748 PWs)   bands (ev):

    -5.3715   3.8456   5.7782   5.7782   8.5630   9.4304   9.4304  11.6607
    13.2733  13.2733  15.3025  16.8626  19.3198  19.3198  23.5618  26.0804
    26.0804  26.7487  29.9050  29.9050  32.5336  32.5336  33.7599  35.7938
    37.2649  38.5140  38.5140  39.9676  39.9676  41.6218  41.6218  44.2008
    44.2008  45.2560  47.2729  47.4460  47.8343  47.8343  49.7505  50.1302
    50.1302  50.5004  51.4827  51.5049  51.5049  54.4725  54.5805  54.5805
    55.7511  55.7511  57.4106  57.8375  59.1562  59.1562  61.5101  61.5101
    62.3846  65.4225  67.7478  68.1888  68.1888  70.7822  72.0442  72.0442
    73.8806  74.6452  74.6452  76.9557  76.9557  78.3099  80.3442  80.3442
    83.0360  83.5594  83.5594  83.6762  84.5146  84.8915  84.8915  85.3271
    87.3690  87.3690  87.8390  88.3886  89.5287  89.5287  90.0300  90.7929
    91.3170  91.3170  91.4268  91.4268  92.7221  94.7701  95.3105  95.3105
    96.1814  96.1814  96.7454  96.7852  97.5379  97.5379

          k = 0.2357-0.2357 0.2357 (   757 PWs)   bands (ev):

    -4.3562   0.8948   5.2314   5.2314   7.9699   9.7191   9.7191  14.0841
    14.1718  14.1718  15.3220  19.8292  20.7671  20.7671  22.9759  23.8503
    23.8503  28.1301  30.0326  30.0326  31.3086  32.8661  32.8661  35.5524
    35.5524  35.9340  36.6363  38.8613  38.8613  39.9958  39.9958  41.9687
    44.1289  44.2704  46.3747  46.3747  47.3206  47.3206  49.3189  50.0749
    50.0749  50.1612  52.2416  54.2536  54.2536  56.6883  56.6883  58.6967
    59.5833  59.5833  60.2215  63.1939  63.1939  63.6520  64.8967  64.8967
    65.0721  66.3556  66.8933  66.8933  67.8479  67.9917  67.9917  70.1224
    70.1224  71.4904  73.4049  73.4049  74.1480  77.5957  78.3977  79.3966
    79.3966  80.2958  80.2958  80.4528  83.2375  83.3324  83.3324  83.8052
    85.0265  86.1501  87.0821  87.0821  87.8390  87.8390  90.5614  90.5614
    90.9795  91.2742  91.2742  91.4789  92.5164  93.4406  93.4406  95.8985
    95.8985  96.2796  96.7442  97.6590  99.5837  99.5837

          k = 0.3536-0.3536 0.3536 (   754 PWs)   bands (ev):

    -3.4024  -0.7390   5.0347   5.0347   7.7432   9.5481   9.5481  13.9431
    16.7181  16.7181  17.5363  17.5363  17.5503  19.2336  25.5017  26.1482
    27.7688  27.7688  27.9082  27.9082  31.8335  32.5359  32.5359  33.4971
    33.4971  34.5733  37.2492  38.5228  38.5228  38.9933  38.9933  39.9547
    42.6862  43.0098  46.8704  46.8704  48.8199  48.8199  49.1312  49.8453
    52.2554  52.2554  54.3849  54.3849  55.1481  58.7072  58.7072  58.9503
    60.2371  60.2371  60.5513  62.0142  62.0142  64.7367  64.7367  65.3593
    65.3593  65.5038  67.7203  68.3940  68.8094  68.8094  70.4352  71.0335
    72.1043  72.1043  73.4785  73.6443  73.9366  73.9366  75.7144  77.0356
    77.7031  77.7031  78.2355  78.2355  80.2384  80.2384  82.7112  82.7112
    83.3340  83.6948  86.3208  87.9835  87.9835  88.3770  90.1174  90.8725
    90.8725  91.2607  92.4695  92.4695  92.9740  95.7773  95.7773  96.0747
    96.0747  97.0307  98.3384  98.6907  99.1191  99.1191

          k =-0.0000 0.0000 0.2357 (   753 PWs)   bands (ev):

    -5.2485   4.1857   5.0373   5.0373   7.9227  10.5072  10.5599  10.5599
    12.8050  14.4428  15.9752  18.2813  18.2813  18.8533  24.6001  25.6216
    25.6216  26.7502  28.0226  29.8417  32.6155  33.2235  33.2235  37.9334
    37.9334  38.0868  38.7211  38.7211  38.9331  39.8267  42.3823  43.6568
    45.5200  45.5200  46.5738  46.6159  47.7371  47.9485  47.9485  50.0671
    50.0671  51.2831  52.1416  53.1629  53.5552  53.5552  54.7997  54.9219
    54.9219  55.5317  55.7866  58.0101  59.6454  59.6454  62.6549  63.4303
    64.9164  64.9164  66.5360  66.8060  71.1258  71.1258  71.9490  72.2020
    74.5280  75.5045  75.5045  75.9310  76.1551  77.3315  77.3315  77.4958
    80.4305  83.3373  84.0634  84.0634  84.2606  84.4501  85.5179  85.8695
    85.8695  86.7169  87.4686  87.4686  87.8852  88.0113  90.1920  91.9227
    91.9227  92.0380  92.1366  92.1366  93.4751  94.0429  95.9123  95.9123
    96.7434  97.0875  97.0875  97.6623  97.8303  99.0021

          k = 0.1179-0.1179 0.3536 (   750 PWs)   bands (ev):

    -4.4334   1.7911   4.2370   4.4873   8.1783  10.2770  10.7271  11.2857
    15.2510  15.3343  16.6355  19.0968  19.9055  21.4485  22.2230  23.2191
    25.9925  26.7005  27.8924  29.6030  31.6542  32.4695  33.4509  35.7467
    36.0220  36.1803  37.8875  38.4134  39.2541  40.0971  41.5995  42.9084
    43.6500  43.9751  44.9771  46.4417  47.5366  48.4204  49.9929  50.1214
    50.8295  51.0508  52.2347  52.6297  53.8508  54.5630  56.5506  56.9705
    57.0412  58.7301  60.6746  61.3418  62.5444  64.2945  64.3148  65.5139
    65.6545  66.6997  68.0496  68.1912  69.1403  69.2862  70.0357  70.5104
    72.1566  72.3651  73.0931  73.3671  74.6512  76.6618  76.7306  78.7707
    78.8585  79.9726  80.5028  82.2219  82.8637  82.8656  83.7665  84.1912
    84.7925  85.1488  85.9744  86.2752  86.9907  88.6055  89.0244  90.0932
    91.3405  91.4828  92.8407  92.8858  93.3930  94.5919  94.6727  95.3772
    95.7248  96.9819  97.1620  97.8614  98.6635  98.6876

          k = 0.2357-0.2357 0.4714 (   752 PWs)   bands (ev):

    -3.2428  -0.3760   3.4537   4.4579   8.2507  10.3231  10.8291  12.6258
    15.6298  16.6484  17.9719  18.0106  18.8829  22.3053  24.1347  25.1679
    26.3523  26.7127  27.2074  28.8668  30.1810  32.4514  33.0374  33.3728
    33.7772  35.6714  36.3764  36.5631  38.2115  39.9224  40.7084  41.4460
    43.0580  43.1545  45.3425  46.5669  48.5796  49.2800  50.7450  52.1560
    52.2835  52.9845  53.7272  53.9071  54.1229  56.3649  56.6696  58.7442
    59.6777  60.2254  61.5338  62.0879  63.3128  63.9895  65.1188  65.8368
    66.1246  66.6384  67.6850  67.8796  68.6895  70.1118  70.1392  70.2272
    70.5803  72.7027  73.6236  74.4624  74.8742  75.2053  76.2302  76.8543
    77.8607  78.2367  78.5938  79.5381  80.6421  81.4975  82.5649  83.5936
    84.1479  84.9173  84.9680  85.7646  86.3698  86.6287  88.0660  89.1371
    90.4889  90.8315  91.3534  92.0087  93.1188  93.2495  93.5843  95.4496
    95.8757  97.3428  97.3638  98.1550  98.3668  99.1481

          k = 0.3536-0.3536 0.5893 (   757 PWs)   bands (ev):

    -3.6274   0.2226   3.1837   4.9358   8.6611  10.3292  10.4407  13.4998
    13.5166  15.6121  17.6587  18.9794  21.1329  21.5426  22.4924  24.1064
    26.0497  28.0217  28.2291  29.1123  30.9099  31.1659  33.3353  33.7592
    34.5389  34.5994  35.9579  38.2351  39.4711  39.9167  40.6509  41.8915
    43.1245  43.7343  45.2172  46.5545  46.8263  48.4567  48.7749  51.0429
    53.1042  53.5527  54.0598  54.1287  54.8697  56.0417  57.5957  59.4703
    59.7491  59.7667  61.0595  61.7922  62.0472  63.6999  64.2994  64.8939
    65.3542  65.7339  66.9789  68.2966  69.0645  70.2669  70.2919  70.9826
    71.8645  72.6414  73.5497  73.5914  74.7753  74.7852  76.0662  76.8783
    77.7369  78.6460  78.8274  82.2471  82.5834  83.2295  83.3750  83.4769
    83.5510  84.4774  85.2271  85.2601  86.0353  86.5062  87.4216  89.3875
    89.5027  90.8927  91.1500  92.8355  93.4431  93.9134  95.0299  95.7082
    96.1070  97.0207  97.2169  97.6615  98.1251  99.7044

          k = 0.4714-0.4714 0.7071 (   748 PWs)   bands (ev):

    -4.7833   2.5095   3.8188   5.6653   9.2541   9.7784  10.0565  11.8746
    12.2938  15.5772  16.7046  17.6963  19.5705  21.7950  22.1838  24.8905
    26.5908  26.8079  27.4055  28.5764  32.5719  32.8178  34.6455  35.3179
    36.7060  37.3307  37.5969  39.9429  40.1457  40.2644  40.5340  41.5051
    44.7849  45.0679  45.4970  46.1841  46.6080  46.9394  48.7634  50.3108
    51.0006  51.0083  53.0108  53.2307  53.3439  54.4992  54.8735  55.8864
    58.5124  59.3564  59.4397  60.7420  62.1283  62.9730  63.1225  64.6150
    64.8027  64.8042  65.8895  66.2371  69.4422  69.6492  70.9007  71.0021
    71.4371  73.1879  74.5295  75.1999  76.0761  77.4302  77.5469  77.9459
    79.7638  80.1135  81.9204  83.1766  83.2028  83.6000  85.1710  85.2092
    86.1464  86.1909  87.2769  87.3516  88.1508  89.9128  89.9319  90.4718
    91.3958  91.5457  91.8709  92.3057  93.2075  93.3004  94.0891  94.1213
    95.1971  95.3412  97.0040  97.1769  97.7958  98.1476

          k = 0.0000-0.0000 0.4714 (   749 PWs)   bands (ev):

    -3.8286   1.2151   3.8177   3.8177   6.9386   8.1967  13.4678  13.4678
    16.0385  16.0421  19.3129  19.6455  19.6455  21.2940  22.3270  22.6323
    22.6323  25.2649  28.9844  30.7095  31.5793  31.5793  32.8114  33.7471
    33.8457  35.0342  35.0342  41.2364  41.3825  41.8390  41.8390  42.4036
    44.3722  44.3722  46.1229  46.3736  46.3736  47.7753  48.9416  49.8444
    49.8444  49.9023  51.6091  54.4436  54.4436  54.4526  57.2749  59.1790
    59.5587  59.7338  59.9424  59.9424  64.4226  64.4226  64.7079  66.0976
    66.3600  67.4382  67.4382  69.8341  69.8341  69.9847  70.0842  72.2605
    72.2654  75.0943  75.0943  75.2338  75.7738  75.7738  75.8831  75.9573
    76.4613  78.8269  78.8269  78.9725  79.8317  81.2174  82.4844  83.6942
    83.6942  84.3315  85.2073  85.2073  87.4054  87.4054  87.5920  87.7776
    87.9151  90.1294  93.3671  94.0412  94.0412  94.6508  96.1623  96.1623
    96.5565  98.4977  98.4977  98.5041  98.8680  99.7299

          k = 0.1179-0.1179 0.5893 (   749 PWs)   bands (ev):

    -2.6652  -0.3384   2.6017   3.6818   7.2719   8.9256  13.6534  13.6847
    16.8244  16.8761  18.4828  19.0920  20.9053  22.0105  22.0847  24.8450
    24.9290  25.6622  26.7509  28.8189  29.3769  29.9905  30.4123  32.7740
    35.3867  35.5216  37.8134  38.1666  38.4539  40.7636  41.6018  42.6317
    43.3252  44.8626  45.3946  46.6176  47.6788  48.3594  49.5944  49.9644
    50.8577  52.6566  53.4895  54.9105  55.5579  56.5114  56.8109  59.2176
    60.1086  60.9305  61.6585  62.1904  62.7660  64.0222  64.2756  65.2061
    65.6495  67.3206  68.5334  68.5413  69.8076  69.9818  71.1704  71.6588
    72.5186  73.1755  73.7615  74.1382  74.8030  75.4583  76.1602  77.3997
    78.1885  78.4244  79.0961  80.0646  80.5243  81.2794  82.7520  83.5327
    84.1083  84.7177  85.4008  85.4919  85.7869  86.9777  87.5192  88.4077
    88.8564  89.6997  89.7028  90.1454  91.4576  91.4982  92.2907  93.5315
    94.9861  95.3318  95.4227  96.7856  97.3099  97.9984

          k = 0.2357-0.2357 0.7071 (   740 PWs)   bands (ev):

    -2.4695  -0.5428   1.8207   4.1232   7.7750  11.9975  12.6911  13.2820
    13.6491  13.8493  20.5605  21.1585  21.8315  21.9173  22.7848  23.6921
    24.5350  26.1229  28.3282  28.7071  29.1210  30.1752  32.7382  32.9273
    33.6201  35.0511  35.4237  35.4926  40.4910  41.0846  41.4022  42.1177
    43.2032  43.8395  44.6486  45.1328  48.1667  49.5563  49.8615  52.3406
    53.0941  53.8032  54.4785  55.7601  56.0515  56.8613  57.1865  59.3635
    59.5419  60.1734  60.3008  61.3463  61.5028  63.0888  63.8412  64.8680
    66.3249  66.8307  67.4666  68.2615  68.4059  69.9548  70.6164  72.3158
    72.4626  72.8626  74.6255  74.7437  76.1329  76.5024  76.5460  77.8418
    77.9044  79.0831  80.3191  80.3750  80.8974  81.0740  81.3466  81.4276
    83.8186  83.8490  83.8606  85.9449  86.1697  87.6790  87.7032  87.9308
    88.9959  89.0896  89.6610  90.8753  91.7883  92.4543  93.1103  94.5064
    95.0975  95.2039  95.2750  95.4072  97.1470  99.6811

          k = 0.0000 0.0000 0.7071 (   740 PWs)   bands (ev):

    -1.5892  -1.5892   3.3844   3.3844   6.9184   6.9184  16.3265  16.3265
    17.1291  17.1291  18.6897  18.6897  19.2580  19.2580  24.9870  24.9870
    25.9545  25.9545  26.3898  26.3898  27.7371  27.7371  31.4433  31.4433
    35.5471  35.5471  40.4278  40.4278  40.4449  40.4449  41.7439  41.7439
    44.4806  44.4806  45.8330  45.8330  46.6747  46.6747  48.0171  48.0171
    50.9585  50.9585  54.8514  54.8514  56.4395  56.4395  59.4938  59.4938
    62.3704  62.3704  63.3178  63.3178  63.4129  63.4129  63.6545  63.6545
    66.3559  66.3559  67.4660  67.4660  67.7924  67.7924  69.4682  69.4682
    74.7684  74.7684  75.0183  75.0183  76.4764  76.4764  78.5802  78.5802
    78.6953  78.6953  81.9091  81.9091  82.0072  82.0072  82.4773  82.4773
    83.6229  83.6229  83.6675  83.6675  84.6546  84.6546  86.2890  86.2890
    87.7978  87.7978  87.9000  87.9000  89.3116  89.3116  95.1185  95.1185
    96.1032  96.1032  97.3602  97.3602  97.8433  97.8433

          k = 0.2357 0.0000 0.4714 (   748 PWs)   bands (ev):

    -3.4437   0.5831   2.6635   3.9381   9.0656   9.9189  10.4457  13.2688
    15.1907  16.1088  19.2165  19.3947  20.1250  21.0725  22.8039  23.9912
    25.6866  27.0684  27.2127  28.8433  30.2090  30.6927  32.8672  33.6493
    34.4334  36.2361  37.4743  37.7649  38.4959  38.9039  40.2898  42.9468
    44.0929  45.0318  45.6024  46.2838  48.5011  48.5324  49.2736  50.1373
    51.6919  52.1771  53.0318  54.5169  54.7387  56.4578  57.2120  57.5035
    59.2053  60.9922  61.4330  62.0120  63.5140  63.7937  64.2574  64.7617
    65.6641  65.9321  68.2239  68.4225  69.7684  70.3229  71.4408  71.6531
    71.9649  72.5307  73.5314  74.2265  74.8971  75.3197  76.2518  76.4633
    77.3606  77.9574  79.3430  80.9185  81.6971  82.3415  82.5085  83.0131
    83.6992  85.0805  85.1342  85.9781  86.8612  87.0624  88.0119  89.5813
    90.0923  90.1941  90.8079  91.8755  92.2286  93.4362  93.8744  94.3720
    95.0319  95.3325  96.2705  97.1233  98.4574  98.9193

          k = 0.3536-0.1179 0.5893 (   738 PWs)   bands (ev):

    -2.4596  -0.6152   2.2230   3.4721   9.5638   9.7681  12.3006  12.7303
    13.7566  17.2806  18.1503  19.6964  22.4117  23.0347  23.1494  24.1003
    24.7453  26.6390  26.9644  27.8517  29.2227  31.7259  31.9396  32.1322
    34.5811  35.7830  36.3426  37.0324  37.3987  38.6691  40.0568  42.4553
    43.8252  45.9283  46.0743  47.0692  48.5901  48.9255  50.2444  50.8278
    51.3073  52.3920  54.2630  55.1034  56.5337  57.3010  57.7572  58.6427
    59.9256  61.1055  61.4257  61.8884  62.2222  63.0006  63.4566  64.3292
    65.7897  66.3078  68.2618  68.4741  69.0785  70.1597  70.1892  71.8146
    72.6405  73.0609  73.6712  73.8923  75.2469  76.0967  77.5328  77.8854
    77.9526  78.3616  79.6339  79.9370  80.7544  81.2290  82.6783  83.4277
    84.4730  84.6349  85.0925  85.5331  86.3871  86.4511  87.3144  87.8925
    88.6147  89.2830  90.1696  90.4555  91.2769  91.6806  92.5046  92.8225
    94.6221  94.6307  96.2685  98.0043  98.4999  99.1354

          k = 0.2357 0.0000 0.7071 (   742 PWs)   bands (ev):

    -1.4696  -1.4696   2.5892   2.5892   8.9579   8.9579  12.9689  12.9689
    16.7587  16.7587  19.1387  19.1387  22.6687  22.6687  23.3785  23.3785
    25.0479  25.0479  27.4938  27.4938  29.4325  29.4325  31.0272  31.0272
    36.0702  36.0702  37.0335  37.0335  38.2606  38.2606  43.0299  43.0299
    43.7105  43.7105  46.6205  46.6205  48.4551  48.4551  49.3002  49.3002
    53.2376  53.2376  54.7675  54.7675  56.7311  56.7311  57.0710  57.0710
    60.7482  60.7482  61.7527  61.7527  63.5893  63.5893  64.6900  64.6900
    65.8379  65.8379  68.5190  68.5190  69.9750  69.9750  71.3808  71.3808
    71.9957  71.9957  73.3711  73.3711  75.5061  75.5061  76.5988  76.5988
    78.9583  78.9583  81.4312  81.4312  82.0403  82.0403  84.1598  84.1598
    84.4605  84.4605  85.2246  85.2246  86.0258  86.0258  86.5114  86.5114
    88.5822  88.5822  90.4525  90.4525  91.2033  91.2033  92.0869  92.0869
    92.6786  92.6786  94.2835  94.2835  97.0401  97.0401

     Writing output data file Si.save/
 
     init_run     :      0.01s CPU      0.11s WALL (       1 calls)
     electrons    :      8.19s CPU      8.52s WALL (       1 calls)

     Called by init_run:
     wfcinit      :      0.00s CPU      0.00s WALL (       1 calls)
     potinit      :      0.00s CPU      0.09s WALL (       1 calls)
     hinit0       :      0.00s CPU      0.02s WALL (       1 calls)

     Called by electrons:
     c_bands      :      8.19s CPU      8.52s WALL (       1 calls)
     v_of_rho     :      0.00s CPU      0.01s WALL (       1 calls)

     Called by c_bands:
     init_us_2    :      0.00s CPU      0.00s WALL (      16 calls)
     cegterg      :      7.94s CPU      8.24s WALL (      16 calls)

     Called by sum_band:

     Called by *egterg:
     h_psi        :      1.53s CPU      1.68s WALL (     270 calls)
     g_psi        :      0.00s CPU      0.00s WALL (     238 calls)
     cdiaghg      :      6.18s CPU      6.31s WALL (     254 calls)

     Called by h_psi:
     h_psi:pot    :      1.52s CPU      1.68s WALL (     270 calls)
     h_psi:calbec :      0.02s CPU      0.03s WALL (     270 calls)
     vloc_psi     :      1.50s CPU      1.64s WALL (     270 calls)
     add_vuspsi   :      0.00s CPU      0.01s WALL (     270 calls)

     General routines
     calbec       :      0.01s CPU      0.02s WALL (     270 calls)
     fft          :      0.00s CPU      0.02s WALL (      10 calls)
     fftw         :      1.41s CPU      1.54s WALL (   32968 calls)
 
     Parallel routines
     fft_scatt_xy :      0.10s CPU      0.12s WALL (   32978 calls)
     fft_scatt_yz :      0.94s CPU      1.04s WALL (   32978 calls)
 
     PWSCF        :      8.53s CPU      9.60s WALL

 
   This run was terminated on:  18:33:16  28Sep2021            

=------------------------------------------------------------------------------=
   JOB DONE.
=------------------------------------------------------------------------------=
