
     Program PWSCF v.6.4.1 starts on  7Oct2021 at 22:32:57 

     This program is part of the open-source Quantum ESPRESSO suite
     for quantum simulation of materials; please cite
         "P. Giannozzi et al., J. Phys.:Condens. Matter 21 395502 (2009);
         "P. Giannozzi et al., J. Phys.:Condens. Matter 29 465901 (2017);
          URL http://www.quantum-espresso.org", 
     in publications or presentations arising from this work. More details at
     http://www.quantum-espresso.org/quote

     Parallel version (MPI & OpenMP), running on      64 processor cores
     Number of MPI processes:                64
     Threads/MPI process:                     1

     MPI processes distributed on     2 nodes
     R & G space division:  proc/nbgrp/npool/nimage =      64
     Waiting for input...
     Reading input from standard input

     Current dimensions of program PWSCF are:
     Max number of different atomic species (ntypx) = 10
     Max number of k-points (npk) =  40000
     Max angular momentum in pseudopotentials (lmaxx) =  3

     Atomic positions and unit cell read from directory:
     ./MoS2.save/
 

     Subspace diagonalization in iterative solution of the eigenvalue problem:
     one sub-group per band group will be used
     scalapack distributed-memory algorithm (size of sub-group:  5*  5 procs)

     Message from routine setup:
     DEPRECATED: symmetry with ibrav=0, use correct ibrav instead
 
     Parallelization info
     --------------------
     sticks:   dense  smooth     PW     G-vecs:    dense   smooth      PW
     Min           6       6      1                  474      474      67
     Max           7       7      2                  508      508      94
     Sum         385     385    121                31921    31921    5539
 


     bravais-lattice index     =            0
     lattice parameter (alat)  =       5.9867  a.u.
     unit-cell volume          =     938.4712 (a.u.)^3
     number of atoms/cell      =            3
     number of atomic types    =            2
     number of electrons       =        26.00
     number of Kohn-Sham states=          202
     kinetic-energy cutoff     =      40.0000  Ry
     charge density cutoff     =     160.0000  Ry
     Exchange-correlation      = PBE ( 1  4  3  4 0 0)
     Using LIBXC version       =    4   3   4
     Non magnetic calculation with spin-orbit


     celldm(1)=   5.986676  celldm(2)=   0.000000  celldm(3)=   0.000000
     celldm(4)=   0.000000  celldm(5)=   0.000000  celldm(6)=   0.000000

     crystal axes: (cart. coord. in units of alat)
               a(1) = (   1.000000   0.000000   0.000000 )  
               a(2) = (  -0.500000   0.866025   0.000000 )  
               a(3) = (   0.000000   0.000000   5.050485 )  

     reciprocal axes: (cart. coord. in units 2 pi/alat)
               b(1) = (  1.000000  0.577350  0.000000 )  
               b(2) = (  0.000000  1.154701  0.000000 )  
               b(3) = (  0.000000  0.000000  0.198001 )  


     PseudoPot. # 1 for Mo read from file:
     ./Mo_FR.UPF
     MD5 check sum: 091442f9a55d305e44af61b3fb26c716
     Pseudo is Norm-conserving, Zval = 14.0
     Generated using ONCVPSP code by D. R. Hamann
     Using radial grid of 1526 points, 10 beta functions with: 
                l(1) =   0
                l(2) =   0
                l(3) =   1
                l(4) =   1
                l(5) =   1
                l(6) =   1
                l(7) =   2
                l(8) =   2
                l(9) =   2
               l(10) =   2

     PseudoPot. # 2 for S  read from file:
     ./S_FR.UPF
     MD5 check sum: 1ec1d62f6016a84edfc3cbeb70a0ad55
     Pseudo is Norm-conserving, Zval =  6.0
     Generated using ONCVPSP code by D. R. Hamann
     Using radial grid of 1146 points,  6 beta functions with: 
                l(1) =   0
                l(2) =   0
                l(3) =   1
                l(4) =   1
                l(5) =   1
                l(6) =   1

     atomic species   valence    mass     pseudopotential
        Mo            14.00     1.00000     Mo( 1.00)
        S              6.00     1.00000     S ( 1.00)

     12 Sym. Ops. (no inversion) found



   Cartesian axes

     site n.     atom                  positions (alat units)
         1           Mo  tau(   1) = (  -0.0000000   0.5773503   0.0000000  )
         2           S   tau(   2) = (   0.5000000   0.2886751  -0.4944526  )
         3           S   tau(   3) = (   0.5000000   0.2886751   0.4944526  )

     number of k points=    31
                       cart. coord. in units 2pi/alat
        k(    1) = (   0.0000000   0.0000000   0.0000000), wk =   0.0069444
        k(    2) = (   0.0000000   0.0962250   0.0000000), wk =   0.0208333
        k(    3) = (   0.0000000   0.1924501   0.0000000), wk =   0.0208333
        k(    4) = (   0.0000000   0.2886751   0.0000000), wk =   0.0208333
        k(    5) = (   0.0000000   0.3849002   0.0000000), wk =   0.0208333
        k(    6) = (   0.0000000   0.4811252   0.0000000), wk =   0.0208333
        k(    7) = (   0.0000000   0.5773503   0.0000000), wk =   0.0208333
        k(    8) = (   0.0000000  -0.4811252   0.0000000), wk =   0.0208333
        k(    9) = (   0.0000000  -0.3849002   0.0000000), wk =   0.0208333
        k(   10) = (   0.0000000  -0.2886751   0.0000000), wk =   0.0208333
        k(   11) = (   0.0000000  -0.1924501   0.0000000), wk =   0.0208333
        k(   12) = (   0.0000000  -0.0962250   0.0000000), wk =   0.0208333
        k(   13) = (   0.0833333   0.1443376   0.0000000), wk =   0.0416667
        k(   14) = (   0.0833333   0.2405626   0.0000000), wk =   0.0416667
        k(   15) = (   0.0833333   0.3367877   0.0000000), wk =   0.0416667
        k(   16) = (   0.0833333   0.4330127   0.0000000), wk =   0.0416667
        k(   17) = (   0.0833333   0.5292377   0.0000000), wk =   0.0416667
        k(   18) = (   0.0833333  -0.5292377   0.0000000), wk =   0.0416667
        k(   19) = (   0.0833333  -0.4330127   0.0000000), wk =   0.0416667
        k(   20) = (   0.0833333  -0.3367877   0.0000000), wk =   0.0416667
        k(   21) = (   0.0833333  -0.2405626   0.0000000), wk =   0.0416667
        k(   22) = (   0.1666667   0.2886751   0.0000000), wk =   0.0416667
        k(   23) = (   0.1666667   0.3849002   0.0000000), wk =   0.0416667
        k(   24) = (   0.1666667   0.4811252   0.0000000), wk =   0.0416667
        k(   25) = (   0.1666667   0.5773503   0.0000000), wk =   0.0416667
        k(   26) = (   0.1666667  -0.4811252   0.0000000), wk =   0.0416667
        k(   27) = (   0.1666667  -0.3849002   0.0000000), wk =   0.0416667
        k(   28) = (   0.2500000   0.4330127   0.0000000), wk =   0.0416667
        k(   29) = (   0.2500000   0.5292377   0.0000000), wk =   0.0416667
        k(   30) = (   0.2500000  -0.5292377   0.0000000), wk =   0.0416667
        k(   31) = (   0.3333333   0.5773503   0.0000000), wk =   0.0138889

     Dense  grid:    31921 G-vectors     FFT dimensions: (  25,  25, 125)

     Estimated max dynamical RAM per process >      19.22 MB

     Estimated total dynamical RAM >       1.20 GB
 ----2D----2D----2D----2D----2D----2D----2D----2D----2D----2D----2D----2D
  The code is running with the 2D cutoff
  Please refer to:
  Sohier, T., Calandra, M., & Mauri, F. (2017), 
  Density functional perturbation theory for gated two-dimensional heterostructu
 res:
  Theoretical developments and application to flexural phonons in graphene.
  Physical Review B, 96(7), 75448. https://doi.org/10.1103/PhysRevB.96.075448
 ----2D----2D----2D----2D----2D----2D----2D----2D----2D----2D----2D----2D

     The potential is recalculated from file :
     ./MoS2.save/charge-density

     Starting wfcs are   36 randomized atomic wfcs +  166 random wfcs

     Band Structure Calculation
     CG style diagonalization
     c_bands:  2 eigenvalues not converged
     c_bands:  2 eigenvalues not converged
     c_bands:  2 eigenvalues not converged
     c_bands:  2 eigenvalues not converged
     c_bands:  2 eigenvalues not converged
     c_bands:  1 eigenvalues not converged
     c_bands:  2 eigenvalues not converged
     c_bands:  1 eigenvalues not converged
     c_bands:  2 eigenvalues not converged
     c_bands:  2 eigenvalues not converged
     c_bands:  2 eigenvalues not converged

     ethr =  3.85E-13,  avg # of iterations = 60.1

     total cpu time spent up to now is      205.1 secs

     End of band structure calculation

          k = 0.0000 0.0000 0.0000 (  3949 PWs)   bands (ev):

   -66.7334 -66.7334 -42.4733 -42.4733 -40.0459 -40.0459 -39.8877 -39.8877
   -20.0517 -20.0517 -18.7477 -18.7477 -11.5647 -11.5647  -8.5456  -8.5456
    -8.4805  -8.4805  -7.7327  -7.7327  -7.4312  -7.4312  -7.3458  -7.3458
    -5.9546  -5.9546  -3.1456  -3.1456  -3.0659  -3.0659  -2.8710  -2.8710
    -2.8689  -2.8689   0.0056   0.0056   0.5263   0.5263   0.7735   0.7735
     3.2526   3.2526   5.0752   5.0752   5.1554   5.1554   5.3297   5.3297
     6.3080   6.3080   7.1304   7.1304   7.1494   7.1494   7.3181   7.3181
    10.3510  10.3510  10.4868  10.4868  10.4999  10.4999  10.6791  10.6791
    10.7346  10.7346  10.7377  10.7377  13.0135  13.0135  13.4258  13.4258
    14.0068  14.0068  15.4469  15.4469  16.9966  16.9966  17.1265  17.1265
    18.3283  18.3283  18.6887  18.6887  18.8043  18.8043  18.8135  18.8135
    19.4557  19.4557  19.6157  19.6157  19.6270  19.6270  19.7678  19.7678
    19.9523  19.9523  19.9570  19.9570  20.4757  20.4757  20.8630  20.8630
    21.0887  21.0887  21.1919  21.1919  23.1675  23.1675  23.5141  23.5141
    23.5255  23.5255  23.6614  23.6614  23.7240  23.7240  24.0239  24.0239
    24.8474  24.8474  24.9041  24.9041  25.2426  25.2426  25.3221  25.3221
    25.4471  25.4471  25.4562  25.4562  26.0366  26.0366  26.9847  26.9847
    27.9205  27.9205  27.9467  27.9467  28.6831  28.6831  28.7019  28.7019
    28.7038  28.7038  30.0180  30.0180  30.0698  30.0698  30.0750  30.0750
    30.3008  30.3008  31.3912  31.3912  31.3958  31.3958  32.0770  32.0770
    32.3809  32.3809  32.4616  32.4616  32.4660  32.4660  32.5329  32.5329
    33.7192  33.7192  33.7728  33.7728  33.7853  33.7853  33.8310  33.8310
    33.8360  33.8360  34.4306  34.4306  35.4310  35.4310  35.6285  35.6285
    35.6310  35.6310  36.3726  36.3726  36.4703  36.4703  36.4721  36.4721
    37.0144  37.0144  37.0901  37.0901  37.5921  37.5921  37.6083  37.6083
    37.8601  37.8601

          k = 0.0000 0.0962 0.0000 (  3957 PWs)   bands (ev):

   -66.7308 -66.7308 -42.4804 -42.4804 -40.0490 -40.0490 -39.9052 -39.9052
   -19.9476 -19.9476 -18.7048 -18.7048 -11.4454 -11.4454  -8.7475  -8.7475
    -8.4028  -8.4028  -8.1999  -8.1999  -7.5556  -7.5556  -7.0816  -7.0816
    -6.0032  -6.0032  -3.2499  -3.2499  -3.1549  -3.1549  -2.9954  -2.9954
    -2.9081  -2.9081   0.2942   0.2942   0.6559   0.6559   1.1320   1.1320
     3.7254   3.7254   4.6300   4.6300   5.4449   5.4449   5.6759   5.6759
     6.1862   6.1862   6.5809   6.5809   7.1810   7.1810   7.2140   7.2140
     9.7384   9.7384  10.3262  10.3262  10.3831  10.3831  10.6734  10.6734
    11.1599  11.1599  11.3843  11.3843  13.3091  13.3091  13.7366  13.7366
    14.8978  14.8978  15.3604  15.3604  16.5100  16.5100  16.6384  16.6384
    17.3581  17.3581  17.4245  17.4245  18.0560  18.0560  18.4686  18.4686
    18.6323  18.6323  18.9318  18.9318  18.9571  18.9571  19.5561  19.5561
    20.8345  20.8345  20.9736  20.9736  21.1687  21.1687  21.6264  21.6264
    21.9607  21.9607  22.2243  22.2243  22.6310  22.6310  22.7413  22.7413
    22.9286  22.9286  23.1894  23.1894  24.1551  24.1551  24.2383  24.2383
    24.7304  24.7304  24.9381  24.9381  25.3950  25.3950  26.0048  26.0048
    26.0294  26.0294  26.2737  26.2737  27.0262  27.0262  27.2806  27.2806
    27.3419  27.3419  27.4437  27.4437  28.4039  28.4039  28.5394  28.5394
    29.3783  29.3783  29.8951  29.8951  30.3290  30.3290  30.3519  30.3519
    30.7628  30.7628  30.8476  30.8476  31.2458  31.2458  31.3293  31.3293
    31.3804  31.3804  32.4696  32.4696  32.8328  32.8328  33.1393  33.1393
    33.2621  33.2621  33.4863  33.4863  33.4917  33.4917  33.8371  33.8371
    34.0211  34.0211  34.3012  34.3012  35.1887  35.1887  35.7589  35.7589
    35.8079  35.8079  35.8646  35.8646  35.9860  35.9860  36.1085  36.1085
    37.3344  37.3344  37.5002  37.5002  37.6175  37.6175  37.9095  37.9095
    37.9877  37.9877

          k = 0.0000 0.1925 0.0000 (  3983 PWs)   bands (ev):

   -66.7235 -66.7235 -42.5004 -42.5004 -40.0614 -40.0614 -39.9479 -39.9479
   -19.6515 -19.6515 -18.5830 -18.5830 -11.1459 -11.1459  -9.2769  -9.2769
    -8.8516  -8.8516  -8.0999  -8.0999  -7.9443  -7.9443  -7.0043  -7.0043
    -6.2296  -6.2296  -3.6121  -3.6121  -3.3007  -3.3007  -3.2510  -3.2510
    -2.5088  -2.5088   0.7587   0.7587   1.0202   1.0202   2.1509   2.1509
     4.0394   4.0394   4.2999   4.2999   5.5542   5.5542   5.9125   5.9125
     6.3331   6.3331   6.7178   6.7178   6.8470   6.8470   7.4195   7.4195
     8.7736   8.7736   9.4341   9.4341   9.8578   9.8578  11.1083  11.1083
    11.9678  11.9678  13.0255  13.0255  13.7300  13.7300  13.9966  13.9966
    14.4700  14.4700  14.9583  14.9583  15.6238  15.6238  16.0918  16.0918
    16.8840  16.8840  16.9100  16.9100  17.1724  17.1724  17.6821  17.6821
    18.4750  18.4750  18.5418  18.5418  19.1970  19.1970  19.2681  19.2681
    19.4409  19.4409  20.0885  20.0885  21.2684  21.2684  21.5456  21.5456
    22.1163  22.1163  22.3229  22.3229  23.3792  23.3792  23.4935  23.4935
    23.5916  23.5916  24.1017  24.1017  24.4893  24.4893  24.9447  24.9447
    24.9636  24.9636  25.3422  25.3422  25.5853  25.5853  26.2934  26.2934
    26.2999  26.2999  26.4747  26.4747  27.1379  27.1379  27.8629  27.8629
    27.9199  27.9199  28.1130  28.1130  28.4054  28.4054  28.4325  28.4325
    28.6188  28.6188  29.0332  29.0332  29.7209  29.7209  30.2270  30.2270
    30.4345  30.4345  30.9030  30.9030  31.1358  31.1358  31.3600  31.3600
    31.7311  31.7311  32.3386  32.3386  32.5800  32.5800  32.7654  32.7654
    32.9281  32.9281  33.1232  33.1232  33.2615  33.2615  34.3866  34.3866
    34.4231  34.4231  34.7943  34.7943  35.1625  35.1625  35.5493  35.5493
    35.9523  35.9523  36.4252  36.4252  36.5690  36.5690  37.0071  37.0071
    37.2605  37.2605  37.5584  37.5584  37.9272  37.9272  38.1953  38.1953
    38.7716  38.7716

          k = 0.0000 0.2887 0.0000 (  3986 PWs)   bands (ev):

   -66.7135 -66.7135 -42.5288 -42.5288 -40.0945 -40.0945 -39.9874 -39.9874
   -19.2130 -19.2130 -18.4039 -18.4039 -10.9324 -10.9324  -9.7299  -9.7299
    -9.5137  -9.5137  -8.3872  -8.3872  -7.6742  -7.6742  -7.2581  -7.2581
    -6.6547  -6.6547  -3.7478  -3.7478  -3.5269  -3.5269  -2.9649  -2.9649
    -2.0880  -2.0880   1.2313   1.2313   1.5347   1.5347   2.8096   2.8096
     3.4895   3.4895   3.7409   3.7409   5.9761   5.9761   6.0416   6.0416
     6.6215   6.6215   7.1426   7.1426   7.2390   7.2390   7.9426   7.9426
     8.7071   8.7071   8.7687   8.7687   9.4756   9.4756  11.6020  11.6020
    11.8104  11.8104  11.9180  11.9180  12.9713  12.9713  14.0045  14.0045
    14.8708  14.8708  15.2101  15.2101  15.6520  15.6520  16.1346  16.1346
    16.4883  16.4883  16.5548  16.5548  16.9014  16.9014  17.5056  17.5056
    18.0480  18.0480  18.5426  18.5426  18.6123  18.6123  18.9598  18.9598
    20.0454  20.0454  20.2343  20.2343  20.9379  20.9379  21.2746  21.2746
    21.3287  21.3287  22.1664  22.1664  23.3148  23.3148  23.7531  23.7531
    24.1401  24.1401  24.5417  24.5417  24.6996  24.6996  24.9523  24.9523
    25.0719  25.0719  25.3542  25.3542  25.5814  25.5814  25.6508  25.6508
    26.0352  26.0352  26.4123  26.4123  27.1114  27.1114  27.4467  27.4467
    27.5982  27.5982  28.0022  28.0022  28.1242  28.1242  29.3772  29.3772
    29.6940  29.6940  29.8135  29.8135  30.2558  30.2558  30.2972  30.2972
    30.3455  30.3455  30.7507  30.7507  30.7665  30.7665  31.5241  31.5241
    32.2637  32.2637  32.4233  32.4233  32.8968  32.8968  33.0123  33.0123
    33.5674  33.5674  33.8832  33.8832  34.1404  34.1404  34.6337  34.6337
    35.0885  35.0885  35.1912  35.1912  35.3669  35.3669  35.9696  35.9696
    36.2194  36.2194  36.2597  36.2597  37.3943  37.3943  37.6520  37.6520
    37.6978  37.6978  37.8829  37.8829  38.0464  38.0464  39.0881  39.0881
    39.1217  39.1217

          k = 0.0000 0.3849 0.0000 (  4008 PWs)   bands (ev):

   -66.7035 -66.7035 -42.5587 -42.5587 -40.1464 -40.1464 -40.0051 -40.0051
   -18.7205 -18.7205 -18.2068 -18.2068 -11.1824 -11.1824 -10.1312 -10.1312
    -9.8225  -9.8225  -8.7567  -8.7567  -7.5724  -7.5724  -7.2471  -7.2471
    -6.8944  -6.8944  -3.6844  -3.6844  -3.5543  -3.5543  -2.4767  -2.4767
    -1.7830  -1.7830   1.6335   1.6335   1.9260   1.9260   2.0740   2.0740
     3.0193   3.0193   3.8788   3.8788   5.4721   5.4721   6.0172   6.0172
     6.6621   6.6621   7.1834   7.1834   7.9515   7.9515   8.7368   8.7368
     9.5252   9.5252   9.6633   9.6633   9.7160   9.7160  10.3491  10.3491
    10.4996  10.4996  12.0156  12.0156  13.4933  13.4933  13.6840  13.6840
    14.6695  14.6695  14.6977  14.6977  15.0142  15.0142  15.8996  15.8996
    16.1977  16.1977  16.2382  16.2382  17.0695  17.0695  17.9866  17.9866
    18.0281  18.0281  18.0863  18.0863  19.4482  19.4482  19.5915  19.5915
    19.9236  19.9236  20.5714  20.5714  20.9450  20.9450  21.3330  21.3330
    21.6128  21.6128  21.9547  21.9547  22.5067  22.5067  22.7048  22.7048
    22.9794  22.9794  23.0287  23.0287  23.9869  23.9869  24.3479  24.3479
    24.8239  24.8239  25.1281  25.1281  25.4696  25.4696  26.0471  26.0471
    26.6654  26.6654  27.0373  27.0373  27.1649  27.1649  28.1804  28.1804
    28.4735  28.4735  28.6165  28.6165  28.7551  28.7551  29.4067  29.4067
    29.4856  29.4856  29.6031  29.6031  30.2041  30.2041  30.3169  30.3169
    30.8214  30.8214  31.7684  31.7684  32.1251  32.1251  32.4298  32.4298
    32.8763  32.8763  32.9380  32.9380  33.3832  33.3832  33.5485  33.5485
    33.7953  33.7953  34.3774  34.3774  34.5333  34.5333  35.2324  35.2324
    35.3471  35.3471  35.3953  35.3953  35.9288  35.9288  36.1124  36.1124
    36.4469  36.4469  36.5896  36.5896  37.1451  37.1451  37.3620  37.3620
    37.6277  37.6277  38.0375  38.0375  38.4466  38.4466  39.1799  39.1799
    39.3914  39.3914

          k = 0.0000 0.4811 0.0000 (  4004 PWs)   bands (ev):

   -66.6962 -66.6962 -42.5814 -42.5814 -40.1897 -40.1897 -40.0108 -40.0108
   -18.3101 -18.3101 -18.0483 -18.0483 -11.5640 -11.5640 -10.5806 -10.5806
    -9.9269  -9.9269  -8.9964  -8.9964  -7.7641  -7.7641  -6.9611  -6.9611
    -6.7134  -6.7134  -3.6692  -3.6692  -3.2763  -3.2763  -2.1173  -2.1173
    -1.6171  -1.6171   0.8468   0.8468   2.0022   2.0022   2.1723   2.1723
     3.1613   3.1613   4.0746   4.0746   5.0339   5.0339   5.6013   5.6013
     5.8476   5.8476   7.3983   7.3983   7.7416   7.7416   9.5187   9.5187
     9.5324   9.5324   9.9486   9.9486  10.7060  10.7060  11.1089  11.1089
    11.3674  11.3674  12.3537  12.3537  12.9613  12.9613  13.5295  13.5295
    14.1807  14.1807  14.4734  14.4734  14.5497  14.5497  15.4598  15.4598
    15.6757  15.6757  15.9988  15.9988  17.6085  17.6085  17.7370  17.7370
    17.7503  17.7503  18.2726  18.2726  19.2521  19.2521  19.2773  19.2773
    19.6172  19.6172  20.0014  20.0014  20.3859  20.3859  21.4576  21.4576
    21.5013  21.5013  21.6889  21.6889  22.0602  22.0602  22.9275  22.9275
    22.9629  22.9629  23.0593  23.0593  23.4429  23.4429  24.3245  24.3245
    24.6218  24.6218  25.6180  25.6180  26.1580  26.1580  26.4801  26.4801
    26.8804  26.8804  26.9829  26.9829  27.7995  27.7995  28.4056  28.4056
    28.7171  28.7171  28.9444  28.9444  29.1359  29.1359  29.3664  29.3664
    29.6735  29.6735  30.2892  30.2892  30.4669  30.4669  31.0927  31.0927
    31.7192  31.7192  31.7935  31.7935  31.9193  31.9193  32.2579  32.2579
    32.4270  32.4270  33.0534  33.0534  33.5013  33.5013  33.8334  33.8334
    34.0100  34.0100  34.0420  34.0420  34.9313  34.9313  35.2458  35.2458
    35.2585  35.2585  35.3248  35.3248  35.5189  35.5189  36.4607  36.4607
    36.8014  36.8014  37.3911  37.3911  37.7094  37.7094  38.0349  38.0349
    38.1876  38.1876  38.3314  38.3314  38.3695  38.3695  38.7212  38.7212
    39.0548  39.0548

          k = 0.0000 0.5774 0.0000 (  4000 PWs)   bands (ev):

   -66.6935 -66.6935 -42.5900 -42.5900 -40.2059 -40.2059 -40.0120 -40.0120
   -18.1453 -18.1453 -17.9867 -17.9867 -11.7272 -11.7272 -10.7472 -10.7472
   -10.0057 -10.0057  -9.0790  -9.0790  -7.8260  -7.8260  -6.8608  -6.8608
    -6.5461  -6.5461  -3.6346  -3.6346  -3.1162  -3.1162  -2.0014  -2.0014
    -1.5665  -1.5665   0.3285   0.3285   2.0770   2.0770   2.4085   2.4085
     3.1910   3.1910   3.9865   3.9865   4.9796   4.9796   5.5108   5.5108
     5.8234   5.8234   6.7459   6.7459   7.3573   7.3573   9.8679   9.8679
     9.9897   9.9897  10.1970  10.1970  10.9696  10.9696  11.7358  11.7358
    11.9353  11.9353  12.5362  12.5362  12.8971  12.8971  13.8790  13.8790
    14.0772  14.0772  14.1224  14.1224  14.3527  14.3527  14.9751  14.9751
    15.3804  15.3804  15.9102  15.9102  17.4220  17.4220  17.6782  17.6782
    17.7681  17.7681  18.5349  18.5349  18.5657  18.5657  19.2526  19.2526
    19.3627  19.3627  19.4507  19.4507  19.6653  19.6653  20.6305  20.6305
    21.5600  21.5600  21.9992  21.9992  22.7811  22.7811  22.7866  22.7866
    22.9379  22.9379  23.4771  23.4771  24.1362  24.1362  24.2118  24.2118
    25.3579  25.3579  25.6251  25.6251  26.2818  26.2818  26.7805  26.7805
    26.9241  26.9241  27.3801  27.3801  27.4962  27.4962  28.6095  28.6095
    28.6565  28.6565  28.9433  28.9433  28.9751  28.9751  29.0752  29.0752
    29.7855  29.7855  30.1106  30.1106  30.9934  30.9934  31.1503  31.1503
    31.4207  31.4207  31.6942  31.6942  32.4546  32.4546  32.7015  32.7015
    32.9144  32.9144  33.0622  33.0622  33.3755  33.3755  33.7810  33.7810
    34.0597  34.0597  34.1140  34.1140  34.5945  34.5945  35.1349  35.1349
    35.1737  35.1737  35.3672  35.3672  35.9561  35.9561  36.1662  36.1662
    36.3180  36.3180  37.1240  37.1240  37.2509  37.2509  37.4934  37.4934
    37.5483  37.5483  38.0149  38.0149  38.5362  38.5362  38.5402  38.5402
    39.2522  39.2522

          k = 0.0000-0.4811 0.0000 (  4004 PWs)   bands (ev):

   -66.6962 -66.6962 -42.5814 -42.5814 -40.1897 -40.1897 -40.0108 -40.0108
   -18.3101 -18.3101 -18.0483 -18.0483 -11.5640 -11.5640 -10.5806 -10.5806
    -9.9269  -9.9269  -8.9964  -8.9964  -7.7641  -7.7641  -6.9611  -6.9611
    -6.7134  -6.7134  -3.6692  -3.6692  -3.2763  -3.2763  -2.1173  -2.1173
    -1.6171  -1.6171   0.8468   0.8468   2.0022   2.0022   2.1723   2.1723
     3.1613   3.1613   4.0746   4.0746   5.0339   5.0339   5.6013   5.6013
     5.8476   5.8476   7.3983   7.3983   7.7416   7.7416   9.5187   9.5187
     9.5324   9.5324   9.9486   9.9486  10.7060  10.7060  11.1089  11.1089
    11.3674  11.3674  12.3537  12.3537  12.9613  12.9613  13.5295  13.5295
    14.1807  14.1807  14.4734  14.4734  14.5497  14.5497  15.4598  15.4598
    15.6757  15.6757  15.9988  15.9988  17.6085  17.6085  17.7370  17.7370
    17.7503  17.7503  18.2726  18.2726  19.2521  19.2521  19.2773  19.2773
    19.6172  19.6172  20.0014  20.0014  20.3859  20.3859  21.4576  21.4576
    21.5013  21.5013  21.6889  21.6889  22.0602  22.0602  22.9275  22.9275
    22.9629  22.9629  23.0593  23.0593  23.4429  23.4429  24.3245  24.3245
    24.6218  24.6218  25.6180  25.6180  26.1580  26.1580  26.4801  26.4801
    26.8804  26.8804  26.9829  26.9829  27.7995  27.7995  28.4056  28.4056
    28.7171  28.7171  28.9444  28.9444  29.1359  29.1359  29.3664  29.3664
    29.6735  29.6735  30.2892  30.2892  30.4669  30.4669  31.0927  31.0927
    31.7192  31.7192  31.7935  31.7935  31.9193  31.9193  32.2579  32.2579
    32.4270  32.4270  33.0534  33.0534  33.5013  33.5013  33.8334  33.8334
    34.0100  34.0100  34.0420  34.0420  34.9313  34.9313  35.2458  35.2458
    35.2585  35.2585  35.3248  35.3248  35.5189  35.5189  36.4607  36.4607
    36.8014  36.8014  37.3911  37.3911  37.7094  37.7094  38.0349  38.0349
    38.1876  38.1876  38.3314  38.3314  38.3695  38.3695  38.7212  38.7212
    39.0548  39.0548

          k = 0.0000-0.3849 0.0000 (  4008 PWs)   bands (ev):

   -66.7035 -66.7035 -42.5587 -42.5587 -40.1464 -40.1464 -40.0051 -40.0051
   -18.7205 -18.7205 -18.2068 -18.2068 -11.1824 -11.1824 -10.1312 -10.1312
    -9.8225  -9.8225  -8.7567  -8.7567  -7.5724  -7.5724  -7.2471  -7.2471
    -6.8944  -6.8944  -3.6844  -3.6844  -3.5543  -3.5543  -2.4767  -2.4767
    -1.7830  -1.7830   1.6335   1.6335   1.9260   1.9260   2.0740   2.0740
     3.0193   3.0193   3.8788   3.8788   5.4721   5.4721   6.0172   6.0172
     6.6621   6.6621   7.1834   7.1834   7.9515   7.9515   8.7368   8.7368
     9.5252   9.5252   9.6633   9.6633   9.7160   9.7160  10.3491  10.3491
    10.4996  10.4996  12.0156  12.0156  13.4933  13.4933  13.6840  13.6840
    14.6695  14.6695  14.6977  14.6977  15.0142  15.0142  15.8996  15.8996
    16.1977  16.1977  16.2382  16.2382  17.0695  17.0695  17.9866  17.9866
    18.0281  18.0281  18.0863  18.0863  19.4482  19.4482  19.5915  19.5915
    19.9236  19.9236  20.5714  20.5714  20.9450  20.9450  21.3330  21.3330
    21.6128  21.6128  21.9547  21.9547  22.5067  22.5067  22.7048  22.7048
    22.9794  22.9794  23.0287  23.0287  23.9869  23.9869  24.3479  24.3479
    24.8239  24.8239  25.1281  25.1281  25.4696  25.4696  26.0471  26.0471
    26.6654  26.6654  27.0373  27.0373  27.1649  27.1649  28.1804  28.1804
    28.4735  28.4735  28.6165  28.6165  28.7551  28.7551  29.4067  29.4067
    29.4856  29.4856  29.6031  29.6031  30.2041  30.2041  30.3169  30.3169
    30.8214  30.8214  31.7684  31.7684  32.1251  32.1251  32.4298  32.4298
    32.8763  32.8763  32.9380  32.9380  33.3832  33.3832  33.5485  33.5485
    33.7953  33.7953  34.3774  34.3774  34.5333  34.5333  35.2324  35.2324
    35.3471  35.3471  35.3953  35.3953  35.9288  35.9288  36.1124  36.1124
    36.4469  36.4469  36.5896  36.5896  37.1451  37.1451  37.3620  37.3620
    37.6277  37.6277  38.0375  38.0375  38.4466  38.4466  39.1799  39.1799
    39.3914  39.3914

          k = 0.0000-0.2887 0.0000 (  3986 PWs)   bands (ev):

   -66.7135 -66.7135 -42.5288 -42.5288 -40.0945 -40.0945 -39.9874 -39.9874
   -19.2130 -19.2130 -18.4039 -18.4039 -10.9324 -10.9324  -9.7299  -9.7299
    -9.5137  -9.5137  -8.3872  -8.3872  -7.6742  -7.6742  -7.2581  -7.2581
    -6.6547  -6.6547  -3.7478  -3.7478  -3.5269  -3.5269  -2.9649  -2.9649
    -2.0880  -2.0880   1.2313   1.2313   1.5347   1.5347   2.8096   2.8096
     3.4895   3.4895   3.7409   3.7409   5.9761   5.9761   6.0416   6.0416
     6.6215   6.6215   7.1426   7.1426   7.2390   7.2390   7.9426   7.9426
     8.7071   8.7071   8.7687   8.7687   9.4756   9.4756  11.6020  11.6020
    11.8104  11.8104  11.9180  11.9180  12.9713  12.9713  14.0045  14.0045
    14.8708  14.8708  15.2101  15.2101  15.6520  15.6520  16.1346  16.1346
    16.4883  16.4883  16.5548  16.5548  16.9014  16.9014  17.5056  17.5056
    18.0480  18.0480  18.5426  18.5426  18.6123  18.6123  18.9598  18.9598
    20.0454  20.0454  20.2343  20.2343  20.9379  20.9379  21.2746  21.2746
    21.3287  21.3287  22.1664  22.1664  23.3148  23.3148  23.7531  23.7531
    24.1401  24.1401  24.5417  24.5417  24.6996  24.6996  24.9523  24.9523
    25.0719  25.0719  25.3542  25.3542  25.5814  25.5814  25.6508  25.6508
    26.0352  26.0352  26.4123  26.4123  27.1114  27.1114  27.4467  27.4467
    27.5982  27.5982  28.0022  28.0022  28.1242  28.1242  29.3772  29.3772
    29.6940  29.6940  29.8135  29.8135  30.2558  30.2558  30.2972  30.2972
    30.3455  30.3455  30.7507  30.7507  30.7665  30.7665  31.5241  31.5241
    32.2637  32.2637  32.4233  32.4233  32.8968  32.8968  33.0123  33.0123
    33.5674  33.5674  33.8832  33.8832  34.1404  34.1404  34.6337  34.6337
    35.0885  35.0885  35.1912  35.1912  35.3669  35.3669  35.9696  35.9696
    36.2194  36.2194  36.2597  36.2597  37.3943  37.3943  37.6520  37.6520
    37.6978  37.6978  37.8829  37.8829  38.0464  38.0464  39.0881  39.0881
    39.1217  39.1217

          k = 0.0000-0.1925 0.0000 (  3983 PWs)   bands (ev):

   -66.7235 -66.7235 -42.5004 -42.5004 -40.0614 -40.0614 -39.9479 -39.9479
   -19.6515 -19.6515 -18.5830 -18.5830 -11.1459 -11.1459  -9.2769  -9.2769
    -8.8516  -8.8516  -8.0999  -8.0999  -7.9443  -7.9443  -7.0043  -7.0043
    -6.2296  -6.2296  -3.6121  -3.6121  -3.3007  -3.3007  -3.2510  -3.2510
    -2.5088  -2.5088   0.7587   0.7587   1.0202   1.0202   2.1509   2.1509
     4.0394   4.0394   4.2999   4.2999   5.5542   5.5542   5.9125   5.9125
     6.3331   6.3331   6.7178   6.7178   6.8470   6.8470   7.4195   7.4195
     8.7736   8.7736   9.4341   9.4341   9.8578   9.8578  11.1083  11.1083
    11.9678  11.9678  13.0255  13.0255  13.7300  13.7300  13.9966  13.9966
    14.4700  14.4700  14.9583  14.9583  15.6238  15.6238  16.0918  16.0918
    16.8840  16.8840  16.9100  16.9100  17.1724  17.1724  17.6821  17.6821
    18.4750  18.4750  18.5418  18.5418  19.1970  19.1970  19.2681  19.2681
    19.4409  19.4409  20.0885  20.0885  21.2684  21.2684  21.5456  21.5456
    22.1163  22.1163  22.3229  22.3229  23.3792  23.3792  23.4935  23.4935
    23.5916  23.5916  24.1017  24.1017  24.4893  24.4893  24.9447  24.9447
    24.9636  24.9636  25.3422  25.3422  25.5853  25.5853  26.2934  26.2934
    26.2999  26.2999  26.4747  26.4747  27.1379  27.1379  27.8629  27.8629
    27.9199  27.9199  28.1130  28.1130  28.4054  28.4054  28.4325  28.4325
    28.6188  28.6188  29.0332  29.0332  29.7209  29.7209  30.2270  30.2270
    30.4345  30.4345  30.9030  30.9030  31.1358  31.1358  31.3600  31.3600
    31.7311  31.7311  32.3386  32.3386  32.5800  32.5800  32.7654  32.7654
    32.9281  32.9281  33.1232  33.1232  33.2615  33.2615  34.3866  34.3866
    34.4231  34.4231  34.7943  34.7943  35.1625  35.1625  35.5493  35.5493
    35.9523  35.9523  36.4252  36.4252  36.5690  36.5690  37.0071  37.0071
    37.2605  37.2605  37.5584  37.5584  37.9272  37.9272  38.1953  38.1953
    38.7716  38.7716

          k = 0.0000-0.0962 0.0000 (  3957 PWs)   bands (ev):

   -66.7308 -66.7308 -42.4804 -42.4804 -40.0490 -40.0490 -39.9052 -39.9052
   -19.9476 -19.9476 -18.7048 -18.7048 -11.4454 -11.4454  -8.7475  -8.7475
    -8.4028  -8.4028  -8.1999  -8.1999  -7.5556  -7.5556  -7.0816  -7.0816
    -6.0032  -6.0032  -3.2499  -3.2499  -3.1549  -3.1549  -2.9954  -2.9954
    -2.9081  -2.9081   0.2942   0.2942   0.6559   0.6559   1.1320   1.1320
     3.7254   3.7254   4.6300   4.6300   5.4449   5.4449   5.6759   5.6759
     6.1862   6.1862   6.5809   6.5809   7.1810   7.1810   7.2140   7.2140
     9.7384   9.7384  10.3262  10.3262  10.3831  10.3831  10.6734  10.6734
    11.1599  11.1599  11.3843  11.3843  13.3091  13.3091  13.7366  13.7366
    14.8978  14.8978  15.3604  15.3604  16.5100  16.5100  16.6384  16.6384
    17.3581  17.3581  17.4245  17.4245  18.0560  18.0560  18.4686  18.4686
    18.6323  18.6323  18.9318  18.9318  18.9571  18.9571  19.5561  19.5561
    20.8345  20.8345  20.9736  20.9736  21.1687  21.1687  21.6264  21.6264
    21.9607  21.9607  22.2243  22.2243  22.6310  22.6310  22.7413  22.7413
    22.9286  22.9286  23.1894  23.1894  24.1551  24.1551  24.2383  24.2383
    24.7304  24.7304  24.9381  24.9381  25.3950  25.3950  26.0048  26.0048
    26.0294  26.0294  26.2737  26.2737  27.0262  27.0262  27.2806  27.2806
    27.3419  27.3419  27.4437  27.4437  28.4039  28.4039  28.5394  28.5394
    29.3783  29.3783  29.8951  29.8951  30.3290  30.3290  30.3519  30.3519
    30.7628  30.7628  30.8476  30.8476  31.2458  31.2458  31.3293  31.3293
    31.3804  31.3804  32.4696  32.4696  32.8328  32.8328  33.1393  33.1393
    33.2621  33.2621  33.4863  33.4863  33.4917  33.4917  33.8371  33.8371
    34.0211  34.0211  34.3012  34.3012  35.1887  35.1887  35.7589  35.7589
    35.8079  35.8079  35.8646  35.8646  35.9860  35.9860  36.1085  36.1085
    37.3344  37.3344  37.5002  37.5002  37.6175  37.6175  37.9095  37.9095
    37.9877  37.9877

          k = 0.0833 0.1443 0.0000 (  3968 PWs)   bands (ev):

   -66.7258 -66.7258 -42.4945 -42.4933 -40.0568 -40.0560 -39.9369 -39.9343
   -19.7484 -19.7463 -18.6224 -18.6222 -11.2337 -11.2309  -9.1256  -9.1140
    -8.6350  -8.6344  -8.2159  -8.1903  -7.9450  -7.9387  -6.9080  -6.8825
    -6.1437  -6.1386  -3.5167  -3.5039  -3.4079  -3.3545  -3.2068  -3.1789
    -2.6088  -2.5597   0.6471   0.6504   0.9042   0.9043   1.8593   1.8626
     4.2190   4.2380   4.4031   4.4042   5.4641   5.4706   5.7109   5.7497
     6.0239   6.0782   6.5834   6.5843   7.0787   7.0789   7.2853   7.2859
     9.2266   9.2508   9.3660   9.4170  10.2451  10.2983  10.7441  10.7606
    11.7637  11.7710  12.6641  12.6653  13.8133  13.8149  14.2315  14.2542
    15.0892  15.0898  15.1375  15.1452  15.6273  15.6394  15.6498  15.6585
    16.4042  16.4421  16.4950  16.5025  17.1915  17.2839  18.0800  18.1498
    19.0933  19.0945  19.2619  19.2733  19.3217  19.3297  19.8442  19.8460
    20.0294  20.0511  20.2718  20.2861  20.5481  20.5510  20.9630  20.9871
    21.6768  21.7471  21.8266  21.8291  23.0407  23.0459  23.8477  23.8499
    24.0492  24.0501  24.2437  24.3116  24.5340  24.5512  24.7158  24.7179
    25.0135  25.0156  25.1365  25.1683  25.6756  25.7173  25.8195  25.8229
    25.8445  25.8487  25.9703  25.9707  27.0744  27.1095  27.5077  27.5104
    27.8968  27.8998  28.4721  28.4778  28.4863  28.4911  28.8996  28.9068
    29.0999  29.1344  29.3412  29.3739  29.9672  29.9679  30.1023  30.1025
    30.3512  30.3637  30.5065  30.5195  31.0052  31.0192  31.3980  31.4037
    31.4395  31.4689  31.9783  31.9809  32.3998  32.4022  32.9698  32.9705
    33.0291  33.0361  33.4673  33.4680  33.8226  33.8346  34.3362  34.3385
    34.3804  34.3862  34.8786  34.8849  35.0536  35.0703  35.4555  35.4573
    35.6682  35.6698  35.7936  35.7936  36.2264  36.2304  36.4949  36.4997
    36.9219  36.9259  37.4937  37.5066  37.7502  37.7527  38.2125  38.2133
    38.6388  38.6396

          k = 0.0833 0.2406 0.0000 (  3991 PWs)   bands (ev):

   -66.7171 -66.7171 -42.5198 -42.5165 -40.0780 -40.0771 -39.9812 -39.9755
   -19.3822 -19.3760 -18.4710 -18.4705 -10.9489 -10.9389  -9.5979  -9.5941
    -9.1852  -9.1753  -8.5018  -8.4972  -7.9086  -7.8691  -6.9447  -6.9155
    -6.4918  -6.4662  -3.8246  -3.7978  -3.4319  -3.4224  -3.3286  -3.2620
    -2.1453  -2.0986   1.1170   1.1237   1.3580   1.3584   2.9152   2.9166
     3.8033   3.8297   4.1200   4.1203   5.6743   5.6761   5.7726   5.7892
     6.2891   6.3078   6.5716   6.5803   7.3255   7.3855   7.6847   7.6852
     8.3197   8.3536   9.0737   9.0758  10.0247  10.0868  11.0721  11.0914
    12.7066  12.7127  13.0410  13.0413  13.1067  13.1070  13.7107  13.7108
    14.2834  14.2969  14.5610  14.5621  15.4374  15.4378  15.7272  15.7329
    16.3045  16.3396  17.1652  17.1883  17.4091  17.4100  17.9673  17.9883
    18.0863  18.1206  18.4053  18.4105  19.3099  19.3118  19.4734  19.4812
    19.8772  19.8796  20.1506  20.1531  20.1752  20.1769  20.8883  20.9278
    22.2948  22.3073  22.3338  22.3341  22.9315  22.9348  23.1836  23.2468
    23.6621  23.6792  23.9260  23.9322  24.5875  24.6025  24.8877  24.8890
    25.0383  25.0610  25.9307  25.9324  26.3542  26.3853  26.4456  26.4473
    26.4553  26.4631  26.6107  26.6177  27.3187  27.3346  27.4721  27.4768
    27.6945  27.7008  28.0043  28.0071  28.2783  28.2795  28.8382  28.8497
    29.0201  29.0221  29.2159  29.2293  29.8777  29.8800  29.8904  29.8951
    30.5558  30.5604  30.6449  30.6483  31.2712  31.2732  31.4081  31.4412
    32.1630  32.1974  32.3545  32.3558  32.7009  32.7022  32.9587  32.9605
    33.0324  33.0373  33.6946  33.7038  33.7175  33.7264  34.3593  34.3609
    34.7763  34.7795  34.8417  34.8529  35.4703  35.4712  35.7472  35.7742
    36.1516  36.1687  36.4551  36.4568  36.5171  36.5278  37.1768  37.1804
    37.4907  37.4950  38.2178  38.2567  38.3435  38.3484  39.0002  39.0069
    39.0391  39.0401

          k = 0.0833 0.3368 0.0000 (  4006 PWs)   bands (ev):

   -66.7072 -66.7072 -42.5502 -42.5444 -40.1224 -40.1190 -40.0086 -40.0039
   -18.9160 -18.9040 -18.2800 -18.2791 -10.9780 -10.9647  -9.8457  -9.8351
    -9.7734  -9.7674  -8.8749  -8.8655  -7.6809  -7.6147  -7.2417  -7.2181
    -6.8026  -6.7366  -3.9008  -3.8389  -3.4799  -3.4536  -2.9276  -2.8784
    -1.7811  -1.7443   1.6110   1.6253   1.8887   1.8889   2.6689   2.6777
     3.3810   3.3845   3.9594   3.9656   5.7508   5.7574   6.0379   6.0398
     6.2916   6.3096   6.8326   6.8569   7.1048   7.1125   8.3665   8.3675
     9.0304   9.0306   9.4122   9.4137  10.0082  10.0523  10.8814  10.8835
    11.1314  11.1367  12.0178  12.0341  13.2642  13.2752  13.8759  13.8804
    13.8917  13.9033  14.5738  14.5770  15.5989  15.5993  15.9102  15.9138
    16.2428  16.2568  16.9690  16.9807  17.4607  17.4728  17.4834  17.4837
    18.2451  18.2463  18.8022  18.8107  19.0027  19.0049  19.6401  19.6537
    19.7255  19.7518  19.9878  20.0011  20.8334  20.8356  21.1974  21.2260
    21.7452  21.8200  21.8303  21.8473  22.3617  22.3662  22.9547  22.9606
    23.5046  23.5064  23.9590  23.9593  24.3001  24.3041  24.5772  24.5973
    25.2014  25.2049  25.6121  25.6145  25.6382  25.6386  25.7336  25.7346
    26.4497  26.4735  26.9313  26.9347  26.9708  26.9969  27.4006  27.4053
    27.8238  27.8239  28.1357  28.1553  28.4950  28.4971  28.8844  28.8985
    29.5321  29.5335  29.8573  29.8818  30.4717  30.4721  30.6971  30.6988
    30.9932  30.9940  31.5688  31.5761  31.9315  31.9574  32.0162  32.0179
    32.1472  32.1632  32.6273  32.6289  33.1825  33.1829  33.2663  33.2690
    33.7804  33.7829  33.8273  33.8289  34.6002  34.6071  34.8820  34.8844
    35.0677  35.0721  35.4739  35.4742  35.7472  35.7527  36.0611  36.0802
    36.4447  36.4514  36.9067  36.9076  36.9249  36.9273  37.4450  37.4492
    38.0453  38.0508  38.2017  38.2080  38.2859  38.2926  38.9102  38.9348
    39.1535  39.1546

          k = 0.0833 0.4330 0.0000 (  4017 PWs)   bands (ev):

   -66.6985 -66.6985 -42.5775 -42.5695 -40.1733 -40.1647 -40.0186 -40.0159
   -18.4595 -18.4410 -18.0968 -18.0955 -11.3208 -11.3205 -10.4360 -10.4285
    -9.8132  -9.8132  -9.0434  -9.0342  -7.6075  -7.5814  -7.5210  -7.4877
    -6.7000  -6.6098  -3.7422  -3.7061  -3.3511  -3.3404  -2.4393  -2.4047
    -1.6325  -1.6086   1.4564   1.4608   2.2112   2.2141   2.2401   2.2407
     3.2461   3.2550   4.1896   4.1915   5.2011   5.2808   5.3109   5.3145
     6.1684   6.2118   7.5097   7.5230   7.6963   7.6980   8.9517   8.9546
     9.4275   9.4326   9.8715   9.8735  10.0077  10.0194  10.1909  10.1937
    11.2480  11.2560  12.5706  12.5810  12.6621  12.6676  13.5753  13.5770
    14.3417  14.3502  14.4584  14.4594  14.8284  14.8299  15.2657  15.2736
    16.1262  16.1615  16.6331  16.6342  17.0319  17.0328  17.8109  17.8128
    18.6521  18.6547  18.6621  18.6886  19.0997  19.1043  19.7653  19.7758
    19.9092  19.9103  19.9972  20.0219  20.6699  20.6706  20.9741  20.9754
    21.5902  21.5918  21.9943  21.9982  22.3574  22.3598  22.3801  22.3896
    22.8496  22.8819  23.1571  23.1650  23.8972  23.9375  24.4361  24.4395
    25.0148  25.0221  25.5049  25.5221  25.7117  25.7119  26.2474  26.2494
    26.8846  26.8847  27.1975  27.2147  27.3703  27.3765  27.9293  27.9442
    28.0038  28.0215  28.3658  28.3961  28.7266  28.7283  28.9822  28.9830
    29.2409  29.2424  30.2802  30.2804  30.7006  30.7118  31.2713  31.2721
    31.5678  31.5773  31.7492  31.7494  31.9169  31.9184  32.1556  32.1761
    32.8722  32.8766  33.1062  33.1248  33.2957  33.2983  33.4940  33.4953
    34.3338  34.3361  34.4802  34.4824  34.8721  34.8731  35.0211  35.0219
    35.2861  35.3016  36.0123  36.0193  36.0337  36.0343  36.6419  36.6452
    36.7135  36.7228  36.9269  36.9284  37.2095  37.2105  37.3943  37.3989
    37.7924  37.8024  37.9259  37.9302  38.4622  38.4703  38.4865  38.4870
    39.0080  39.0119

          k = 0.0833 0.5292 0.0000 (  4025 PWs)   bands (ev):

   -66.6935 -66.6935 -42.5937 -42.5845 -40.2044 -40.1929 -40.0216 -40.0201
   -18.1642 -18.1409 -17.9818 -17.9803 -11.5927 -11.5811 -10.7827 -10.7772
    -9.9487  -9.9409  -9.0976  -9.0885  -7.7843  -7.7797  -7.4302  -7.3596
    -6.4623  -6.3613  -3.6433  -3.6041  -3.1669  -3.0713  -2.0423  -2.0141
    -1.7244  -1.7068   0.5715   0.5883   2.4970   2.5000   2.6399   2.6537
     3.2803   3.2828   4.1442   4.1702   4.8651   4.9157   5.0501   5.0504
     5.9425   5.9715   7.1850   7.2109   7.4980   7.4990   9.1069   9.1207
     9.6580   9.6713  10.2088  10.2099  10.7772  10.7866  10.8403  10.8486
    12.0126  12.0265  12.4615  12.4927  12.6903  12.6916  13.3372  13.3426
    14.0639  14.0681  14.3844  14.3867  14.7368  14.7430  15.0863  15.0976
    15.7576  15.8244  16.1235  16.1245  16.4570  16.4600  18.1853  18.1904
    18.5975  18.5976  18.7360  18.7463  19.0800  19.0892  19.1190  19.1202
    19.6657  19.6658  19.6872  19.6919  20.2325  20.2358  20.5457  20.5499
    21.2276  21.2308  21.5140  21.5317  22.1029  22.1100  23.2620  23.2628
    23.3180  23.3237  23.9781  23.9805  24.3303  24.3588  24.8893  24.8904
    25.0651  25.0756  25.1932  25.1951  25.6116  25.6427  26.4803  26.4917
    26.5726  26.5743  26.9006  26.9057  27.0993  27.1369  28.1618  28.2055
    28.6103  28.6117  29.1846  29.1960  29.3930  29.3972  29.4883  29.5031
    30.2879  30.2884  30.3763  30.3861  30.8397  30.8459  30.9384  30.9399
    31.1845  31.2011  31.4746  31.4755  32.1378  32.1384  32.3127  32.3159
    32.4542  32.4559  32.8171  32.8213  33.4939  33.4991  33.6823  33.6863
    33.9870  33.9991  34.0814  34.1001  34.5619  34.5636  35.1665  35.1710
    35.5131  35.5171  35.5235  35.5259  36.0113  36.0162  36.5623  36.5637
    36.7131  36.7131  36.9651  36.9652  37.4084  37.4234  37.4745  37.4760
    37.6465  37.6578  37.9837  37.9843  38.4723  38.4759  38.7288  38.7389
    39.0926  39.1002

          k = 0.0833-0.5292 0.0000 (  4025 PWs)   bands (ev):

   -66.6935 -66.6935 -42.5937 -42.5845 -40.2044 -40.1929 -40.0216 -40.0201
   -18.1642 -18.1409 -17.9818 -17.9803 -11.5927 -11.5811 -10.7827 -10.7772
    -9.9487  -9.9409  -9.0976  -9.0885  -7.7843  -7.7797  -7.4302  -7.3596
    -6.4623  -6.3613  -3.6433  -3.6041  -3.1669  -3.0713  -2.0423  -2.0141
    -1.7244  -1.7068   0.5715   0.5883   2.4970   2.5000   2.6399   2.6537
     3.2803   3.2828   4.1442   4.1702   4.8651   4.9157   5.0501   5.0504
     5.9425   5.9715   7.1850   7.2109   7.4980   7.4990   9.1069   9.1207
     9.6580   9.6713  10.2088  10.2099  10.7772  10.7866  10.8403  10.8486
    12.0126  12.0265  12.4615  12.4927  12.6903  12.6916  13.3372  13.3426
    14.0639  14.0681  14.3844  14.3867  14.7368  14.7430  15.0863  15.0976
    15.7576  15.8244  16.1235  16.1245  16.4570  16.4600  18.1853  18.1904
    18.5975  18.5976  18.7360  18.7463  19.0800  19.0892  19.1190  19.1202
    19.6657  19.6658  19.6872  19.6919  20.2325  20.2358  20.5457  20.5499
    21.2276  21.2308  21.5140  21.5317  22.1029  22.1100  23.2620  23.2628
    23.3180  23.3237  23.9781  23.9805  24.3303  24.3588  24.8893  24.8904
    25.0651  25.0756  25.1932  25.1951  25.6116  25.6427  26.4803  26.4917
    26.5726  26.5743  26.9006  26.9057  27.0993  27.1369  28.1618  28.2055
    28.6103  28.6117  29.1846  29.1960  29.3930  29.3972  29.4883  29.5031
    30.2879  30.2884  30.3763  30.3861  30.8397  30.8459  30.9384  30.9399
    31.1845  31.2011  31.4746  31.4755  32.1378  32.1384  32.3127  32.3159
    32.4542  32.4559  32.8171  32.8213  33.4939  33.4991  33.6823  33.6863
    33.9870  33.9991  34.0814  34.1001  34.5619  34.5636  35.1665  35.1710
    35.5131  35.5171  35.5235  35.5259  36.0113  36.0162  36.5623  36.5637
    36.7131  36.7131  36.9651  36.9652  37.4084  37.4234  37.4745  37.4760
    37.6465  37.6578  37.9837  37.9843  38.4723  38.4759  38.7288  38.7389
    39.0926  39.1002

          k = 0.0833-0.4330 0.0000 (  4017 PWs)   bands (ev):

   -66.6985 -66.6985 -42.5775 -42.5695 -40.1733 -40.1647 -40.0186 -40.0159
   -18.4595 -18.4410 -18.0968 -18.0955 -11.3208 -11.3205 -10.4360 -10.4285
    -9.8132  -9.8132  -9.0434  -9.0342  -7.6075  -7.5814  -7.5210  -7.4877
    -6.7000  -6.6098  -3.7422  -3.7061  -3.3511  -3.3404  -2.4393  -2.4047
    -1.6325  -1.6086   1.4564   1.4608   2.2112   2.2141   2.2401   2.2407
     3.2461   3.2550   4.1896   4.1915   5.2011   5.2808   5.3109   5.3145
     6.1684   6.2118   7.5097   7.5230   7.6963   7.6980   8.9517   8.9546
     9.4275   9.4326   9.8715   9.8735  10.0077  10.0194  10.1909  10.1937
    11.2480  11.2560  12.5706  12.5810  12.6621  12.6676  13.5753  13.5770
    14.3417  14.3502  14.4584  14.4594  14.8284  14.8299  15.2657  15.2736
    16.1262  16.1615  16.6331  16.6342  17.0319  17.0328  17.8109  17.8128
    18.6521  18.6547  18.6621  18.6886  19.0997  19.1043  19.7653  19.7758
    19.9092  19.9103  19.9972  20.0219  20.6699  20.6706  20.9741  20.9754
    21.5902  21.5918  21.9943  21.9982  22.3574  22.3598  22.3801  22.3896
    22.8496  22.8819  23.1571  23.1650  23.8972  23.9375  24.4361  24.4395
    25.0148  25.0221  25.5049  25.5221  25.7117  25.7119  26.2474  26.2494
    26.8846  26.8847  27.1975  27.2147  27.3703  27.3765  27.9293  27.9442
    28.0038  28.0215  28.3658  28.3961  28.7266  28.7283  28.9822  28.9830
    29.2409  29.2424  30.2802  30.2804  30.7006  30.7118  31.2713  31.2721
    31.5678  31.5773  31.7492  31.7494  31.9169  31.9184  32.1556  32.1761
    32.8722  32.8766  33.1062  33.1248  33.2957  33.2983  33.4940  33.4953
    34.3338  34.3361  34.4802  34.4824  34.8721  34.8731  35.0211  35.0219
    35.2861  35.3016  36.0123  36.0193  36.0337  36.0343  36.6419  36.6452
    36.7135  36.7228  36.9269  36.9284  37.2095  37.2105  37.3943  37.3989
    37.7924  37.8024  37.9259  37.9302  38.4622  38.4703  38.4865  38.4870
    39.0080  39.0119

          k = 0.0833-0.3368 0.0000 (  4006 PWs)   bands (ev):

   -66.7072 -66.7072 -42.5502 -42.5444 -40.1224 -40.1190 -40.0086 -40.0039
   -18.9160 -18.9040 -18.2800 -18.2791 -10.9780 -10.9647  -9.8457  -9.8351
    -9.7734  -9.7674  -8.8749  -8.8655  -7.6809  -7.6147  -7.2417  -7.2181
    -6.8026  -6.7366  -3.9008  -3.8389  -3.4799  -3.4536  -2.9276  -2.8784
    -1.7811  -1.7443   1.6110   1.6253   1.8887   1.8889   2.6689   2.6777
     3.3810   3.3845   3.9594   3.9656   5.7508   5.7574   6.0379   6.0398
     6.2916   6.3096   6.8326   6.8569   7.1048   7.1125   8.3665   8.3675
     9.0304   9.0306   9.4122   9.4137  10.0082  10.0523  10.8814  10.8835
    11.1314  11.1367  12.0178  12.0341  13.2642  13.2752  13.8759  13.8804
    13.8917  13.9033  14.5738  14.5770  15.5989  15.5993  15.9102  15.9138
    16.2428  16.2568  16.9690  16.9807  17.4607  17.4728  17.4834  17.4837
    18.2451  18.2463  18.8022  18.8107  19.0027  19.0049  19.6401  19.6537
    19.7255  19.7518  19.9878  20.0011  20.8334  20.8356  21.1974  21.2260
    21.7452  21.8200  21.8303  21.8473  22.3617  22.3662  22.9547  22.9606
    23.5046  23.5064  23.9590  23.9593  24.3001  24.3041  24.5772  24.5973
    25.2014  25.2049  25.6121  25.6145  25.6382  25.6386  25.7336  25.7346
    26.4497  26.4735  26.9313  26.9347  26.9708  26.9969  27.4006  27.4053
    27.8238  27.8239  28.1357  28.1553  28.4950  28.4971  28.8844  28.8985
    29.5321  29.5335  29.8573  29.8818  30.4717  30.4721  30.6971  30.6988
    30.9932  30.9940  31.5688  31.5761  31.9315  31.9574  32.0162  32.0179
    32.1472  32.1632  32.6273  32.6289  33.1825  33.1829  33.2663  33.2690
    33.7804  33.7829  33.8273  33.8289  34.6002  34.6071  34.8820  34.8844
    35.0677  35.0721  35.4739  35.4742  35.7472  35.7527  36.0611  36.0802
    36.4447  36.4514  36.9067  36.9076  36.9249  36.9273  37.4450  37.4492
    38.0453  38.0508  38.2017  38.2080  38.2859  38.2926  38.9102  38.9348
    39.1535  39.1546

          k = 0.0833-0.2406 0.0000 (  3991 PWs)   bands (ev):

   -66.7171 -66.7171 -42.5198 -42.5165 -40.0780 -40.0771 -39.9812 -39.9755
   -19.3822 -19.3760 -18.4710 -18.4705 -10.9489 -10.9389  -9.5979  -9.5941
    -9.1852  -9.1753  -8.5018  -8.4972  -7.9086  -7.8691  -6.9447  -6.9155
    -6.4918  -6.4662  -3.8246  -3.7978  -3.4319  -3.4224  -3.3286  -3.2620
    -2.1453  -2.0986   1.1170   1.1237   1.3580   1.3584   2.9152   2.9166
     3.8033   3.8297   4.1200   4.1203   5.6743   5.6761   5.7726   5.7892
     6.2891   6.3078   6.5716   6.5803   7.3255   7.3855   7.6847   7.6852
     8.3197   8.3536   9.0737   9.0758  10.0247  10.0868  11.0721  11.0914
    12.7066  12.7127  13.0410  13.0413  13.1067  13.1070  13.7107  13.7108
    14.2834  14.2969  14.5610  14.5621  15.4374  15.4378  15.7272  15.7329
    16.3045  16.3396  17.1652  17.1883  17.4091  17.4100  17.9673  17.9883
    18.0863  18.1206  18.4053  18.4105  19.3099  19.3118  19.4734  19.4812
    19.8772  19.8796  20.1506  20.1531  20.1752  20.1769  20.8883  20.9278
    22.2948  22.3073  22.3338  22.3341  22.9315  22.9348  23.1836  23.2468
    23.6621  23.6792  23.9260  23.9322  24.5875  24.6025  24.8877  24.8890
    25.0383  25.0610  25.9307  25.9324  26.3542  26.3853  26.4456  26.4473
    26.4553  26.4631  26.6107  26.6177  27.3187  27.3346  27.4721  27.4768
    27.6945  27.7008  28.0043  28.0071  28.2783  28.2795  28.8382  28.8497
    29.0201  29.0221  29.2159  29.2293  29.8777  29.8800  29.8904  29.8951
    30.5558  30.5604  30.6449  30.6483  31.2712  31.2732  31.4081  31.4412
    32.1630  32.1974  32.3545  32.3558  32.7009  32.7022  32.9587  32.9605
    33.0324  33.0373  33.6946  33.7038  33.7175  33.7264  34.3593  34.3609
    34.7763  34.7795  34.8417  34.8529  35.4703  35.4712  35.7472  35.7742
    36.1516  36.1687  36.4551  36.4568  36.5171  36.5278  37.1768  37.1804
    37.4907  37.4950  38.2178  38.2567  38.3435  38.3484  39.0002  39.0069
    39.0391  39.0401

          k = 0.1667 0.2887 0.0000 (  4006 PWs)   bands (ev):

   -66.7085 -66.7085 -42.5469 -42.5390 -40.1097 -40.1060 -40.0141 -40.0066
   -18.9856 -18.9695 -18.3052 -18.3040 -10.8770 -10.8538  -9.7429  -9.7333
    -9.6181  -9.5882  -9.1332  -9.1044  -7.9063  -7.8307  -6.9867  -6.9517
    -6.7440  -6.6718  -4.0162  -3.9466  -3.4224  -3.4048  -3.2244  -3.1673
    -1.7186  -1.6797   1.6369   1.6526   1.8674   1.8686   3.0917   3.1068
     3.8977   3.8980   4.2220   4.2554   5.5169   5.5525   5.6254   5.6382
     5.9110   5.9937   6.5816   6.6067   6.7090   6.7262   8.2576   8.2581
     8.9693   8.9762   9.1810   9.1870  10.2650  10.3083  11.3417  11.3553
    12.1110  12.1214  12.4220  12.4284  12.5151  12.5154  12.9187  12.9268
    13.8785  13.8862  14.4731  14.4767  15.7551  15.7636  16.5581  16.5807
    16.5947  16.5967  16.9448  16.9484  17.0010  17.0330  17.4479  17.4632
    18.1383  18.1398  18.8149  18.8458  19.0944  19.0986  19.5453  19.5494
    20.1724  20.1725  20.2682  20.2754  20.6345  20.6382  21.5087  21.5296
    21.7694  21.7725  22.1724  22.1769  22.2163  22.2624  22.4534  22.4630
    23.0810  23.0838  23.6628  23.6737  24.4278  24.4348  24.4791  24.5037
    25.1427  25.1583  25.5646  25.5687  25.9162  25.9252  26.4453  26.4661
    26.5384  26.5393  26.7221  26.7267  27.1188  27.1196  27.7655  27.7820
    27.8852  27.8864  28.3339  28.3468  28.7031  28.7033  28.9948  28.9958
    29.1586  29.1653  30.1351  30.1901  30.2737  30.2759  30.3046  30.3366
    30.5840  30.5887  30.7904  30.7908  31.7158  31.7201  31.8152  31.8432
    32.2312  32.2438  32.2551  32.2586  33.1876  33.1934  33.3729  33.3971
    33.4380  33.4385  34.0877  34.1150  34.6251  34.6319  34.9212  34.9339
    34.9667  34.9736  35.3044  35.3109  36.2002  36.2049  36.2056  36.2079
    36.2689  36.2707  36.5563  36.5621  36.9766  36.9831  37.3912  37.4279
    37.9436  37.9581  38.2638  38.2730  38.3762  38.3871  38.8300  38.8307
    38.9937  39.0168

          k = 0.1667 0.3849 0.0000 (  4002 PWs)   bands (ev):

   -66.6998 -66.6998 -42.5747 -42.5621 -40.1550 -40.1411 -40.0330 -40.0291
   -18.5459 -18.5175 -18.1208 -18.1188 -11.0638 -11.0512 -10.3128 -10.2968
    -9.6485  -9.6382  -9.2394  -9.2189  -8.1867  -8.1142  -7.2863  -7.2648
    -6.7051  -6.6087  -3.8663  -3.7979  -3.3137  -3.3104  -2.8921  -2.8602
    -1.4749  -1.4638   1.9930   2.0240   2.4240   2.4243   2.4858   2.5256
     3.7403   3.7460   4.3395   4.4080   5.0974   5.1103   5.6912   5.6951
     6.4119   6.4403   6.5628   6.5640   6.8936   6.9025   8.5435   8.5491
     8.9635   8.9637   9.5472   9.5541  10.2770  10.2957  10.8361  10.8378
    11.1111  11.1117  12.0105  12.0240  12.1691  12.1707  13.2931  13.3047
    14.6855  14.6931  14.9491  14.9579  15.0564  15.0837  15.7847  15.7871
    15.9720  15.9968  17.2132  17.2187  17.3321  17.3326  17.7335  17.7352
    17.8806  17.8912  18.6541  18.7156  19.2249  19.2322  19.3365  19.3382
    20.0820  20.0831  20.4740  20.4774  20.8239  20.8278  21.0839  21.0847
    21.7812  21.7913  22.0068  22.0090  22.4860  22.4879  23.0959  23.1133
    23.4383  23.4387  23.4627  23.4659  24.0525  24.0614  24.7260  24.7268
    24.9516  24.9666  25.1284  25.1296  25.5863  25.5908  26.2897  26.2930
    26.4409  26.4708  26.6396  26.6492  26.8758  26.8766  27.6612  27.6657
    27.8393  27.8401  28.4162  28.4266  28.8852  28.8854  28.9464  28.9497
    29.3422  29.3422  29.7183  29.7734  30.4696  30.4739  30.8647  30.8933
    31.0559  31.0572  31.0755  31.0764  31.2880  31.2889  32.1202  32.1300
    32.9432  32.9704  33.2079  33.2099  33.7349  33.7366  34.1163  34.1243
    34.3865  34.3891  34.5935  34.6112  35.0081  35.0159  35.3110  35.3171
    35.7699  35.7770  35.7830  35.7937  36.1200  36.1204  36.3788  36.3822
    36.6328  36.6478  36.8164  36.8175  37.4184  37.4314  37.6135  37.6358
    37.8043  37.8059  38.1618  38.1622  38.4463  38.4514  38.6231  38.6363
    38.8995  38.9001

          k = 0.1667 0.4811 0.0000 (  4030 PWs)   bands (ev):

   -66.6935 -66.6935 -42.5954 -42.5793 -40.1926 -40.1702 -40.0414 -40.0411
   -18.1869 -18.1469 -17.9708 -17.9682 -11.2641 -11.2522 -10.8449 -10.8352
    -9.7590  -9.7551  -9.1529  -9.1351  -8.3059  -8.2413  -7.6550  -7.6442
    -6.4603  -6.3515  -3.6890  -3.6624  -3.1370  -3.0213  -2.5408  -2.5377
    -1.4518  -1.4249   1.1811   1.2066   2.8670   2.8845   2.9393   2.9454
     3.8453   3.8665   3.9785   4.0293   4.9533   4.9702   5.4051   5.4066
     6.2181   6.2424   7.2460   7.2557   7.4644   7.4880   8.4417   8.4429
     9.0230   9.0237   9.1502   9.1524  10.2694  10.2711  10.4485  10.4541
    11.1204  11.1232  12.1749  12.1778  12.5949  12.6161  13.5680  13.5727
    13.9450  13.9561  14.4230  14.4254  15.1492  15.1960  15.4732  15.4868
    16.0876  16.1012  17.0059  17.0114  17.0513  17.0694  17.6769  17.6861
    17.7807  17.7814  18.4827  18.4863  19.0197  19.0220  19.5346  19.5358
    20.4554  20.4711  20.7148  20.7193  21.1346  21.1358  21.4193  21.4220
    21.6790  21.6830  21.8408  21.8454  22.4090  22.4106  22.8969  22.8989
    23.1141  23.1224  23.4696  23.4726  23.9978  24.0122  24.9153  24.9238
    24.9328  24.9378  25.2447  25.2562  25.6548  25.6578  26.3732  26.3735
    26.5981  26.6019  27.0528  27.0540  27.2148  27.2216  27.6503  27.6744
    28.0159  28.0203  28.2354  28.2360  28.7728  28.8583  29.1038  29.1055
    29.6333  29.6339  30.0899  30.0926  30.5154  30.5170  30.7913  30.8065
    30.8259  30.8305  31.3179  31.3242  32.0437  32.0489  32.2633  32.2820
    32.7765  32.7800  33.2359  33.2637  33.4855  33.4942  33.7423  33.7426
    34.2955  34.2961  34.7020  34.7397  35.0049  35.0083  35.0188  35.0195
    35.4442  35.4453  35.9495  35.9540  35.9855  35.9860  36.2425  36.2578
    36.8012  36.8033  36.9801  36.9807  37.2211  37.2341  37.8091  37.8113
    38.0171  38.0182  38.0655  38.0660  38.3355  38.3521  38.9217  38.9252
    39.2346  39.2394

          k = 0.1667 0.5774 0.0000 (  4050 PWs)   bands (ev):

   -66.6912 -66.6911 -42.6030 -42.5857 -40.2069 -40.1814 -40.0448 -40.0438
   -18.0452 -18.0004 -17.9121 -17.9094 -11.3446 -11.3186 -11.0382 -11.0307
    -9.8896  -9.8766  -9.0790  -9.0604  -8.2999  -8.2381  -7.8321  -7.8265
    -6.2856  -6.1696  -3.7622  -3.7141  -2.9146  -2.7649  -2.4015  -2.3769
    -1.4968  -1.4470   0.7030   0.7353   3.2419   3.3191   3.3751   3.3797
     3.6596   3.6971   3.7574   3.7719   4.9648   4.9723   5.2046   5.2049
     6.1522   6.1628   7.3336   7.3731   7.4879   7.4931   8.1072   8.1266
     9.1473   9.1606   9.4596   9.4660  10.2304  10.2306  10.6219  10.6411
    11.5363  11.5493  12.1884  12.1920  12.5149  12.5479  13.4171  13.4220
    13.7810  13.8178  13.8885  13.8889  14.5779  14.6264  15.3686  15.3797
    16.4514  16.4541  16.6840  16.6914  17.1460  17.1559  17.8047  17.8047
    18.1024  18.1186  18.9920  18.9959  19.5487  19.5601  19.5903  19.5935
    20.0237  20.0266  20.2471  20.2521  20.7151  20.7157  21.0357  21.0394
    21.3987  21.4033  21.8685  21.8692  22.3177  22.3363  23.3243  23.3310
    23.8588  23.8977  23.9085  23.9234  24.1869  24.1925  24.4713  24.4773
    24.5827  24.5883  24.8451  24.8466  25.7802  25.7843  26.3769  26.4027
    26.6616  26.6621  27.1691  27.1766  27.4361  27.4630  27.4792  27.4814
    28.3450  28.3485  28.5370  28.5625  29.0164  29.0176  29.4994  29.5028
    30.0829  30.0856  30.1423  30.1440  30.8404  30.8449  31.0666  31.0756
    31.4026  31.4059  31.5195  31.5328  31.5734  31.5774  32.4128  32.4166
    32.5011  32.5050  32.5752  32.6306  33.0056  33.0111  33.1584  33.1585
    33.5197  33.5198  34.2216  34.2273  34.2519  34.2554  35.0855  35.0878
    35.6262  35.6287  35.8186  35.8224  35.8927  35.9051  36.2898  36.2902
    36.3902  36.3904  37.0228  37.0250  37.3501  37.3509  37.8428  37.8475
    37.9915  37.9954  38.6151  38.6156  38.7012  38.7091  38.9623  38.9645
    39.5138  39.5153

          k = 0.1667-0.4811 0.0000 (  4030 PWs)   bands (ev):

   -66.6935 -66.6935 -42.5954 -42.5793 -40.1926 -40.1702 -40.0414 -40.0411
   -18.1869 -18.1469 -17.9708 -17.9682 -11.2641 -11.2522 -10.8449 -10.8352
    -9.7590  -9.7551  -9.1529  -9.1351  -8.3059  -8.2413  -7.6550  -7.6442
    -6.4603  -6.3515  -3.6890  -3.6624  -3.1370  -3.0213  -2.5408  -2.5377
    -1.4518  -1.4249   1.1811   1.2066   2.8670   2.8845   2.9393   2.9454
     3.8453   3.8665   3.9785   4.0293   4.9533   4.9702   5.4051   5.4066
     6.2181   6.2424   7.2460   7.2557   7.4644   7.4880   8.4417   8.4429
     9.0230   9.0237   9.1502   9.1524  10.2694  10.2711  10.4485  10.4541
    11.1204  11.1232  12.1749  12.1778  12.5949  12.6161  13.5680  13.5727
    13.9450  13.9561  14.4230  14.4254  15.1492  15.1960  15.4732  15.4868
    16.0876  16.1012  17.0059  17.0114  17.0513  17.0694  17.6769  17.6861
    17.7807  17.7814  18.4827  18.4863  19.0197  19.0220  19.5346  19.5358
    20.4554  20.4711  20.7148  20.7193  21.1346  21.1358  21.4193  21.4220
    21.6790  21.6830  21.8408  21.8454  22.4090  22.4106  22.8969  22.8989
    23.1141  23.1224  23.4696  23.4726  23.9978  24.0122  24.9153  24.9238
    24.9328  24.9378  25.2447  25.2562  25.6548  25.6578  26.3732  26.3735
    26.5981  26.6019  27.0528  27.0540  27.2148  27.2216  27.6503  27.6744
    28.0159  28.0203  28.2354  28.2360  28.7728  28.8583  29.1038  29.1055
    29.6333  29.6339  30.0899  30.0926  30.5154  30.5170  30.7913  30.8065
    30.8259  30.8305  31.3179  31.3242  32.0437  32.0489  32.2633  32.2820
    32.7765  32.7800  33.2359  33.2637  33.4855  33.4942  33.7423  33.7426
    34.2955  34.2961  34.7020  34.7397  35.0049  35.0083  35.0188  35.0195
    35.4442  35.4453  35.9495  35.9540  35.9855  35.9860  36.2425  36.2578
    36.8012  36.8033  36.9801  36.9807  37.2211  37.2341  37.8091  37.8113
    38.0171  38.0182  38.0655  38.0660  38.3355  38.3521  38.9217  38.9252
    39.2346  39.2394

          k = 0.1667-0.3849 0.0000 (  4002 PWs)   bands (ev):

   -66.6998 -66.6998 -42.5747 -42.5621 -40.1550 -40.1411 -40.0330 -40.0291
   -18.5459 -18.5175 -18.1208 -18.1188 -11.0638 -11.0512 -10.3128 -10.2968
    -9.6485  -9.6382  -9.2394  -9.2189  -8.1867  -8.1142  -7.2863  -7.2648
    -6.7051  -6.6087  -3.8663  -3.7979  -3.3137  -3.3104  -2.8921  -2.8602
    -1.4749  -1.4638   1.9930   2.0240   2.4240   2.4243   2.4858   2.5256
     3.7403   3.7460   4.3395   4.4080   5.0974   5.1103   5.6912   5.6951
     6.4119   6.4403   6.5628   6.5640   6.8936   6.9025   8.5435   8.5491
     8.9635   8.9637   9.5472   9.5541  10.2770  10.2957  10.8361  10.8378
    11.1111  11.1117  12.0105  12.0240  12.1691  12.1707  13.2931  13.3047
    14.6855  14.6931  14.9491  14.9579  15.0564  15.0837  15.7847  15.7871
    15.9720  15.9968  17.2132  17.2187  17.3321  17.3326  17.7335  17.7352
    17.8806  17.8912  18.6541  18.7156  19.2249  19.2322  19.3365  19.3382
    20.0820  20.0831  20.4740  20.4774  20.8239  20.8278  21.0839  21.0847
    21.7812  21.7913  22.0068  22.0090  22.4860  22.4879  23.0959  23.1133
    23.4383  23.4387  23.4627  23.4659  24.0525  24.0614  24.7260  24.7268
    24.9516  24.9666  25.1284  25.1296  25.5863  25.5908  26.2897  26.2930
    26.4409  26.4708  26.6396  26.6492  26.8758  26.8766  27.6612  27.6657
    27.8393  27.8401  28.4162  28.4266  28.8852  28.8854  28.9464  28.9497
    29.3422  29.3422  29.7183  29.7734  30.4696  30.4739  30.8647  30.8933
    31.0559  31.0572  31.0755  31.0764  31.2880  31.2889  32.1202  32.1300
    32.9432  32.9704  33.2079  33.2099  33.7349  33.7366  34.1163  34.1243
    34.3865  34.3891  34.5935  34.6112  35.0081  35.0159  35.3110  35.3171
    35.7699  35.7770  35.7830  35.7937  36.1200  36.1204  36.3788  36.3822
    36.6328  36.6478  36.8164  36.8175  37.4184  37.4314  37.6135  37.6358
    37.8043  37.8059  38.1618  38.1622  38.4463  38.4514  38.6231  38.6363
    38.8995  38.9001

          k = 0.2500 0.4330 0.0000 (  4048 PWs)   bands (ev):

   -66.6935 -66.6935 -42.5957 -42.5772 -40.1847 -40.1562 -40.0550 -40.0526
   -18.1969 -18.1511 -17.9652 -17.9622 -11.0615 -11.0573 -10.8738 -10.8621
    -9.5277  -9.5209  -9.1895  -9.1703  -8.8615  -8.8065  -7.5759  -7.5663
    -6.4856  -6.3757  -3.7262  -3.7130  -3.1071  -2.9933  -2.7928  -2.7834
    -1.2923  -1.2552   1.7011   1.7175   2.5433   2.6080   3.0141   3.0178
     3.8405   3.8714   4.3115   4.3170   5.6814   5.7177   5.9751   5.9757
     6.4606   6.4825   6.8250   6.8325   6.9495   6.9620   7.4941   7.5003
     9.0246   9.0487   9.0872   9.0906   9.6832   9.6877  10.6470  10.6500
    11.0600  11.0841  11.1931  11.2018  12.6754  12.6812  13.6133  13.6156
    13.9297  13.9575  15.0174  15.0847  15.2711  15.2775  16.2490  16.2493
    16.3964  16.4227  16.5826  16.5923  16.7491  16.7613  17.3344  17.3387
    17.7377  17.7385  18.7558  18.7630  19.2434  19.2440  19.3929  19.3962
    20.0249  20.0255  20.5638  20.5715  21.6111  21.6148  22.0784  22.0798
    22.1680  22.1720  22.5688  22.5755  22.9775  22.9828  23.0442  23.0480
    23.2301  23.2381  23.7000  23.7003  24.0881  24.0965  24.7256  24.7267
    24.8193  24.8326  25.2235  25.2260  25.2740  25.2783  25.6006  25.6190
    26.1321  26.1350  26.4442  26.4615  27.0517  27.0542  27.3703  27.3978
    27.8961  27.8979  28.7287  28.7336  29.1000  29.1072  29.1505  29.1522
    29.4900  29.4908  29.6271  29.6437  30.0342  30.0397  30.4065  30.4799
    30.9783  30.9804  31.3515  31.3665  31.5845  31.5846  32.3417  32.3849
    32.5203  32.5251  33.1873  33.1938  33.3921  33.4012  33.4693  33.4835
    34.5112  34.5148  34.7475  34.7487  34.8031  34.8049  35.5869  35.5892
    35.7375  35.7405  35.9601  35.9614  36.5406  36.5569  36.7765  36.7780
    36.9036  36.9331  37.2534  37.2592  37.7506  37.7753  37.9306  37.9310
    38.2383  38.2466  38.4011  38.4020  38.7631  38.7786  38.8078  38.8099
    39.1096  39.1177

          k = 0.2500 0.5292 0.0000 (  4050 PWs)   bands (ev):

   -66.6898 -66.6898 -42.6078 -42.5858 -40.2028 -40.1634 -40.0716 -40.0631
   -17.9807 -17.9233 -17.8659 -17.8626 -11.2214 -11.2126 -10.9463 -10.9179
    -9.7535  -9.7450  -9.1597  -9.1157  -8.9912  -8.9513  -7.9123  -7.9073
    -6.1836  -6.0555  -3.9662  -3.9454  -2.7631  -2.7608  -2.6384  -2.5218
    -1.1770  -1.1070   1.1686   1.2221   2.3562   2.4250   3.5256   3.5326
     4.2041   4.2340   4.8956   4.9076   5.6147   5.6155   5.9228   5.9333
     6.2898   6.2976   6.7281   6.7389   7.6130   7.6437   7.7766   7.7790
     8.5654   8.5657   8.6661   8.6663   9.1238   9.1379  10.1107  10.1152
    11.1147  11.1195  11.5714  11.5780  12.7080  12.7102  13.4226  13.5113
    13.5115  13.5652  13.9724  13.9754  14.5150  14.5173  15.7644  15.7811
    15.9871  15.9912  17.1889  17.1895  17.9651  17.9661  18.0092  18.0116
    18.4516  18.4635  19.1783  19.1822  19.4295  19.4318  19.7043  19.7124
    20.7055  20.7144  20.7665  20.7731  21.1953  21.1955  21.3898  21.3997
    21.9779  21.9825  22.5211  22.5232  22.7060  22.7175  23.1897  23.1925
    23.2636  23.2696  23.6011  23.6032  23.9203  23.9225  24.5133  24.5242
    24.8047  24.8078  25.2684  25.2699  25.5486  25.5511  25.8238  25.8331
    26.1551  26.1579  26.9514  26.9527  27.4420  27.4438  27.4941  27.4980
    27.9000  27.9005  28.3108  28.3327  29.1408  29.1669  29.1993  29.1994
    29.4919  29.4970  29.9594  29.9821  30.3281  30.3308  30.6001  30.6236
    31.0801  31.0812  31.3101  31.3173  31.4913  31.4959  32.1551  32.1597
    32.4192  32.4223  32.9646  32.9890  33.2553  33.2559  33.6314  33.6501
    33.6639  33.6665  34.1067  34.1308  34.3217  34.3225  34.8991  34.9366
    35.2960  35.2969  35.5383  35.5486  36.0452  36.0465  36.2192  36.2211
    36.6695  36.6700  37.1577  37.1604  37.6511  37.6525  37.7433  37.7465
    38.3789  38.3818  38.5351  38.5391  38.9025  38.9029  39.1837  39.1938
    39.7434  39.7441

          k = 0.2500-0.5292 0.0000 (  4050 PWs)   bands (ev):

   -66.6898 -66.6898 -42.6078 -42.5858 -40.2028 -40.1634 -40.0716 -40.0631
   -17.9807 -17.9233 -17.8659 -17.8626 -11.2214 -11.2126 -10.9463 -10.9179
    -9.7535  -9.7450  -9.1597  -9.1157  -8.9912  -8.9513  -7.9123  -7.9073
    -6.1836  -6.0555  -3.9662  -3.9454  -2.7631  -2.7608  -2.6384  -2.5218
    -1.1770  -1.1070   1.1686   1.2221   2.3562   2.4250   3.5256   3.5326
     4.2041   4.2340   4.8956   4.9076   5.6147   5.6155   5.9228   5.9333
     6.2898   6.2976   6.7281   6.7389   7.6130   7.6437   7.7766   7.7790
     8.5654   8.5657   8.6661   8.6663   9.1238   9.1379  10.1107  10.1152
    11.1147  11.1195  11.5714  11.5780  12.7080  12.7102  13.4226  13.5113
    13.5115  13.5652  13.9724  13.9754  14.5150  14.5173  15.7644  15.7811
    15.9871  15.9912  17.1889  17.1895  17.9651  17.9661  18.0092  18.0116
    18.4516  18.4635  19.1783  19.1822  19.4295  19.4318  19.7043  19.7124
    20.7055  20.7144  20.7665  20.7731  21.1953  21.1955  21.3898  21.3997
    21.9779  21.9825  22.5211  22.5232  22.7060  22.7175  23.1897  23.1925
    23.2636  23.2696  23.6011  23.6032  23.9203  23.9225  24.5133  24.5242
    24.8047  24.8078  25.2684  25.2699  25.5486  25.5511  25.8238  25.8331
    26.1551  26.1579  26.9514  26.9527  27.4420  27.4438  27.4941  27.4980
    27.9000  27.9005  28.3108  28.3327  29.1408  29.1669  29.1993  29.1994
    29.4919  29.4970  29.9594  29.9821  30.3281  30.3308  30.6001  30.6236
    31.0801  31.0812  31.3101  31.3173  31.4913  31.4959  32.1551  32.1597
    32.4192  32.4223  32.9646  32.9890  33.2553  33.2559  33.6314  33.6501
    33.6639  33.6665  34.1067  34.1308  34.3217  34.3225  34.8991  34.9366
    35.2960  35.2969  35.5383  35.5486  36.0452  36.0465  36.2192  36.2211
    36.6695  36.6700  37.1577  37.1604  37.6511  37.6525  37.7433  37.7465
    38.3789  38.3818  38.5351  38.5391  38.9025  38.9029  39.1837  39.1938
    39.7434  39.7441

          k = 0.3333 0.5774 0.0000 (  4050 PWs)   bands (ev):

   -66.6885 -66.6885 -42.6123 -42.5880 -40.2056 -40.1558 -40.0880 -40.0722
   -17.9037 -17.8398 -17.8243 -17.8212 -11.3691 -11.3613 -10.5521 -10.5164
   -10.0392  -9.9809  -9.4836  -9.4653  -8.8387  -8.7884  -8.1140  -8.0907
    -6.0030  -5.8551  -4.1924  -4.1894  -2.8639  -2.8321  -2.4109  -2.2693
    -1.0303  -0.9476   1.3524   1.4741   1.7718   1.7747   3.8060   3.8142
     4.6854   4.7206   5.4518   5.4611   5.9075   5.9281   6.0419   6.0723
     6.3408   6.3423   6.5744   6.6021   7.2338   7.2555   8.2415   8.2596
     8.2846   8.2905   8.3199   8.3239   8.6676   8.6701   9.6784   9.6900
    10.6578  10.6587  11.5603  11.5915  12.6878  12.7131  12.7205  12.8438
    13.9585  13.9842  14.0888  14.0911  14.3059  14.3115  15.1270  15.1379
    15.5097  15.5247  17.2699  17.2834  18.9728  18.9733  19.2021  19.2085
    19.4343  19.4371  19.7921  19.8156  19.8399  19.8615  19.9057  19.9232
    19.9251  19.9265  20.7340  20.7425  20.7750  20.7876  21.2272  21.2304
    22.0784  22.1244  22.4963  22.5068  22.5254  22.5306  22.9924  23.0070
    23.2625  23.2647  23.2906  23.3006  23.3656  23.3690  24.6410  24.6466
    24.7880  24.7887  25.6702  25.6714  25.8514  25.8597  26.2960  26.2994
    26.8403  26.8430  26.8897  26.8953  27.2809  27.2810  27.8310  27.8341
    27.8341  27.8423  27.9697  28.0187  28.0435  28.0439  28.0463  28.0617
    29.8640  29.9013  29.9067  29.9338  30.4315  30.4377  30.6374  30.6500
    30.9585  30.9673  31.7714  31.7745  32.0252  32.0313  32.2575  32.3103
    32.5666  32.5690  32.8883  32.8924  32.8928  32.9197  32.9464  32.9487
    33.4673  33.4688  34.0641  34.0809  34.1538  34.1964  34.7326  34.7332
    35.1296  35.1324  35.6549  35.6657  35.9888  35.9917  36.1364  36.1364
    36.3195  36.3319  37.0186  37.0433  37.4902  37.4968  37.5620  37.5694
    38.1040  38.1065  38.5059  38.5065  39.2738  39.2979  39.6062  39.6089
    39.6335  39.6441

     Writing output data file MoS2.save/
 
     init_run     :      0.04s CPU      0.14s WALL (       1 calls)
     electrons    :    190.10s CPU    204.34s WALL (       1 calls)

     Called by init_run:
     wfcinit      :      0.00s CPU      0.00s WALL (       1 calls)
     potinit      :      0.01s CPU      0.05s WALL (       1 calls)
     hinit0       :      0.01s CPU      0.06s WALL (       1 calls)

     Called by electrons:
     c_bands      :    190.10s CPU    204.34s WALL (       1 calls)
     v_of_rho     :      0.00s CPU      0.01s WALL (       1 calls)

     Called by c_bands:
     init_us_2    :      0.00s CPU      0.00s WALL (      31 calls)
     ccgdiagg     :    176.47s CPU    190.00s WALL (     162 calls)
     wfcrot       :     13.58s CPU     14.29s WALL (     162 calls)

     Called by sum_band:

     Called by *cgdiagg:
     h_psi        :    125.71s CPU    135.34s WALL (  338519 calls)
     cdiaghg      :      2.78s CPU      2.80s WALL (     162 calls)

     Called by h_psi:
     h_psi:pot    :    124.16s CPU    133.67s WALL (  338519 calls)
     h_psi:calbec :     13.92s CPU     15.03s WALL (  338519 calls)
     vloc_psi     :    101.80s CPU    109.56s WALL (  338519 calls)
     add_vuspsi   :      5.83s CPU      6.41s WALL (  338519 calls)
     hs_1psi      :    120.56s CPU    129.66s WALL (  338357 calls)
     s_1psi       :     13.11s CPU     14.05s WALL (  338357 calls)

     General routines
     calbec       :     22.65s CPU     24.70s WALL (  676876 calls)
     fft          :      0.00s CPU      0.05s WALL (      13 calls)
     fftw         :     96.23s CPU    103.57s WALL ( 1484324 calls)
 
     Parallel routines
     fft_scatt_xy :      6.12s CPU      6.61s WALL ( 1484337 calls)
     fft_scatt_yz :     70.46s CPU     76.18s WALL ( 1484337 calls)
 
     PWSCF        :   3m15.59s CPU   3m51.72s WALL

 
   This run was terminated on:  22:36:49   7Oct2021            

=------------------------------------------------------------------------------=
   JOB DONE.
=------------------------------------------------------------------------------=
