
     Program PWSCF v.6.4.1 starts on 28Sep2021 at 18:33:25 

     This program is part of the open-source Quantum ESPRESSO suite
     for quantum simulation of materials; please cite
         "P. Giannozzi et al., J. Phys.:Condens. Matter 21 395502 (2009);
         "P. Giannozzi et al., J. Phys.:Condens. Matter 29 465901 (2017);
          URL http://www.quantum-espresso.org", 
     in publications or presentations arising from this work. More details at
     http://www.quantum-espresso.org/quote

     Parallel version (MPI & OpenMP), running on      32 processor cores
     Number of MPI processes:                32
     Threads/MPI process:                     1

     MPI processes distributed on     1 nodes
     R & G space division:  proc/nbgrp/npool/nimage =      32
     Waiting for input...
     Reading input from standard input

     Current dimensions of program PWSCF are:
     Max number of different atomic species (ntypx) = 10
     Max number of k-points (npk) =  40000
     Max angular momentum in pseudopotentials (lmaxx) =  3

     Atomic positions and unit cell read from directory:
     ./Si.save/
 
     Message from routine readpp:
     file ./Si.save/Si.UPF not found

     Subspace diagonalization in iterative solution of the eigenvalue problem:
     one sub-group per band group will be used
     scalapack distributed-memory algorithm (size of sub-group:  4*  4 procs)

     Message from routine setup:
     DEPRECATED: symmetry with ibrav=0, use correct ibrav instead
 
     Parallelization info
     --------------------
     sticks:   dense  smooth     PW     G-vecs:    dense   smooth      PW
     Min          13      13      4                  185      185      37
     Max          14      14      5                  190      190      40
     Sum         433     433    151                 5985     5985    1243
 


     bravais-lattice index     =            0
     lattice parameter (alat)  =       7.2558  a.u.
     unit-cell volume          =     270.1072 (a.u.)^3
     number of atoms/cell      =            2
     number of atomic types    =            1
     number of electrons       =         8.00
     number of Kohn-Sham states=           12
     kinetic-energy cutoff     =      30.0000  Ry
     charge density cutoff     =     120.0000  Ry
     Exchange-correlation      = PBE ( 1  4  3  4 0 0)
     Using LIBXC version       =    4   3   4

     celldm(1)=   7.255773  celldm(2)=   0.000000  celldm(3)=   0.000000
     celldm(4)=   0.000000  celldm(5)=   0.000000  celldm(6)=   0.000000

     crystal axes: (cart. coord. in units of alat)
               a(1) = (   0.707107   0.707107   0.000000 )  
               a(2) = (   0.000000   0.707107   0.707107 )  
               a(3) = (   0.707107   0.000000   0.707107 )  

     reciprocal axes: (cart. coord. in units 2 pi/alat)
               b(1) = (  0.707107  0.707107 -0.707107 )  
               b(2) = ( -0.707107  0.707107  0.707107 )  
               b(3) = (  0.707107 -0.707107  0.707107 )  


     PseudoPot. # 1 for Si read from file:
     ./Si.UPF
     MD5 check sum: 4a983b2f8bd4acc3a0d3df54d7a3924d
     Pseudo is Norm-conserving, Zval =  4.0
     Generated using ONCVPSP code by D. R. Hamann
     Using radial grid of 1510 points,  4 beta functions with: 
                l(1) =   0
                l(2) =   0
                l(3) =   1
                l(4) =   1

     atomic species   valence    mass     pseudopotential
        Si             4.00     1.00000     Si( 1.00)

     48 Sym. Ops., with inversion, found (36 have fractional translation)



   Cartesian axes

     site n.     atom                  positions (alat units)
         1           Si  tau(   1) = (  -0.1767767  -0.1767767  -0.1767767  )
         2           Si  tau(   2) = (   0.1767767   0.1767767   0.1767767  )

     number of k points=    56
                       cart. coord. in units 2pi/alat
        k(    1) = (   0.0007071  -0.0007071   0.0007071), wk =   0.0092593
        k(    2) = (   0.1185582  -0.1185582   0.1185582), wk =   0.0092593
        k(    3) = (   0.2364094  -0.2364094   0.2364094), wk =   0.0092593
        k(    4) = (   0.3542605  -0.3542605   0.3542605), wk =   0.0092593
        k(    5) = (   0.4721116  -0.4721116   0.4721116), wk =   0.0092593
        k(    6) = (   0.5899628  -0.5899628   0.5899628), wk =   0.0092593
        k(    7) = (   0.0007071  -0.0007071   0.2364094), wk =   0.0277778
        k(    8) = (   0.1185582  -0.1185582   0.3542605), wk =   0.0277778
        k(    9) = (   0.2364094  -0.2364094   0.4721116), wk =   0.0277778
        k(   10) = (   0.3542605  -0.3542605   0.5899628), wk =   0.0277778
        k(   11) = (   0.4721116  -0.4721116   0.7078139), wk =   0.0277778
        k(   12) = (   0.0007071  -0.0007071   0.4721116), wk =   0.0277778
        k(   13) = (   0.1185582  -0.1185582   0.5899628), wk =   0.0277778
        k(   14) = (   0.2364094  -0.2364094   0.7078139), wk =   0.0277778
        k(   15) = (   0.0007071  -0.0007071   0.7078139), wk =   0.0277778
        k(   16) = (   0.1185582   0.1171440   0.1185582), wk =   0.0277778
        k(   17) = (   0.0007071   0.2349952   0.2364094), wk =   0.0555556
        k(   18) = (   0.1185582   0.1171440   0.3542605), wk =   0.0555556
        k(   19) = (   0.2364094  -0.0007071   0.4721116), wk =   0.0555556
        k(   20) = (   0.3542605  -0.1185582   0.5899628), wk =   0.0555556
        k(   21) = (   0.1185582   0.1171440   0.5899628), wk =   0.0555556
        k(   22) = (   0.2364094  -0.0007071   0.7078139), wk =   0.0555556
        k(   23) = (   0.2364094  -0.0007071   0.9435161), wk =   0.0555556
        k(   24) = (   0.3542605   0.1171440  -0.1171440), wk =   0.0277778
        k(   25) = (   0.8256650  -0.3542605   0.3542605), wk =   0.0277778
        k(   26) = (   0.2364094   0.2349952   0.2364094), wk =   0.0277778
        k(   27) = (   0.1185582   0.3528463   0.3542605), wk =   0.0555556
        k(   28) = (   0.2364094   0.2349952   0.4721116), wk =   0.0555556
        k(   29) = (   0.3542605   0.1171440   0.5899628), wk =   0.0555556
        k(   30) = (   0.0007071   0.4706974   0.4721116), wk =   0.0555556
        k(   31) = (   0.4721116   0.2349952  -0.2349952), wk =   0.0277778
        k(   32) = (   0.5899628   0.1171440  -0.1171440), wk =   0.0277778
        k(   33) = (   0.8256650  -0.1185582   0.1185582), wk =   0.0277778
        k(   34) = (   0.9435161  -0.2364094   0.2364094), wk =   0.0277778
        k(   35) = (   0.3542605   0.3528463   0.3542605), wk =   0.0277778
        k(   36) = (   0.1185582   0.5885485   0.3542605), wk =   0.0555556
        k(   37) = (   0.2364094   0.4706974   0.4721116), wk =   0.0555556
        k(   38) = (   0.3542605   0.3528463   0.5899628), wk =   0.0555556
        k(   39) = (   0.0007071   0.7063997   0.4721116), wk =   0.0555556
        k(   40) = (   0.1185582   0.5885485   0.5899628), wk =   0.0555556
        k(   41) = (   0.5899628   0.3528463  -0.3528463), wk =   0.0277778
        k(   42) = (   0.7078139   0.2349952  -0.2349952), wk =   0.0277778
        k(   43) = (   0.8256650   0.1171440  -0.1171440), wk =   0.0277778
        k(   44) = (   0.9435161  -0.0007071   0.0007071), wk =   0.0277778
        k(   45) = (   1.0613673  -0.1185582   0.1185582), wk =   0.0277778
        k(   46) = (   0.3542605   0.5885485  -0.1171440), wk =   0.0555556
        k(   47) = (   0.4721116   0.4706974   0.4721116), wk =   0.0277778
        k(   48) = (   0.2364094   0.7063997   0.4721116), wk =   0.0555556
        k(   49) = (   0.3542605   0.5885485   0.5899628), wk =   0.0555556
        k(   50) = (   0.7078139   0.4706974  -0.4706974), wk =   0.0277778
        k(   51) = (   0.8256650   0.3528463  -0.3528463), wk =   0.0277778
        k(   52) = (   0.9435161   0.2349952  -0.2349952), wk =   0.0277778
        k(   53) = (   1.0613673   0.1171440  -0.1171440), wk =   0.0277778
        k(   54) = (   1.1792184  -0.0007071   0.0007071), wk =   0.0277778
        k(   55) = (   0.4721116   0.7063997  -0.2349952), wk =   0.0555556
        k(   56) = (   0.5899628   0.5885485   0.5899628), wk =   0.0277778

     Dense  grid:     5985 G-vectors     FFT dimensions: (  30,  30,  30)

     Estimated max dynamical RAM per process >       0.66 MB

     Estimated total dynamical RAM >      21.23 MB

     The potential is recalculated from file :
     ./Si.save/charge-density

     Starting wfcs are    8 randomized atomic wfcs +    4 random wfcs

     Band Structure Calculation
     Davidson diagonalization with overlap

     ethr =  1.25E-12,  avg # of iterations = 30.1

     total cpu time spent up to now is        7.3 secs

     End of band structure calculation

          k = 0.0007-0.0007 0.0007 (   743 PWs)   bands (ev):

    -5.7326   6.2253   6.2254   6.2254   8.7858   8.7858   8.7858   9.5667
    13.9057  13.9057  14.1704  17.4574

          k = 0.1186-0.1186 0.1186 (   748 PWs)   bands (ev):

    -5.3672   3.8267   5.7743   5.7743   8.5590   9.4354   9.4354  11.6787
    13.2710  13.2710  15.3075  16.8669

          k = 0.2364-0.2364 0.2364 (   757 PWs)   bands (ev):

    -4.3487   0.8792   5.2291   5.2291   7.9673   9.7179   9.7179  14.0872
    14.1847  14.1847  15.3324  19.8474

          k = 0.3543-0.3543 0.3543 (   754 PWs)   bands (ev):

    -3.4025  -0.7390   5.0348   5.0348   7.7432   9.5481   9.5481  13.9431
    16.7175  16.7175  17.5369  17.5369

          k = 0.4721-0.4721 0.4721 (   757 PWs)   bands (ev):

    -4.3637   0.9104   5.2338   5.2338   7.9726   9.7203   9.7203  14.0807
    14.1589  14.1589  15.3119  19.8107

          k = 0.5900-0.5900 0.5900 (   748 PWs)   bands (ev):

    -5.3757   3.8645   5.7821   5.7821   8.5669   9.4253   9.4253  11.6427
    13.2758  13.2758  15.2972  16.8587

          k = 0.0007-0.0007 0.2364 (   753 PWs)   bands (ev):

    -5.2456   4.1769   5.0328   5.0328   7.9190  10.5021  10.5679  10.5683
    12.8103  14.4460  15.9845  18.2858

          k = 0.1186-0.1186 0.3543 (   750 PWs)   bands (ev):

    -4.4267   1.7754   4.2314   4.4855   8.1799  10.2836  10.7249  11.2851
    15.2616  15.3532  16.6309  19.1127

          k = 0.2364-0.2364 0.4721 (   752 PWs)   bands (ev):

    -3.2374  -0.3837   3.4503   4.4594   8.2516  10.3219  10.8260  12.6438
    15.6225  16.6289  17.9635  18.0278

          k = 0.3543-0.3543 0.5900 (   757 PWs)   bands (ev):

    -3.6349   0.2350   3.1841   4.9398   8.6648  10.3302  10.4387  13.4843
    13.5015  15.6265  17.6677  18.9591

          k = 0.4721-0.4721 0.7078 (   748 PWs)   bands (ev):

    -4.7888   2.5213   3.8280   5.6691   9.2552   9.7725  10.0501  11.8743
    12.2950  15.5576  16.6978  17.6914

          k = 0.0007-0.0007 0.4721 (   749 PWs)   bands (ev):

    -3.8230   1.2062   3.8151   3.8152   6.9369   8.1908  13.4770  13.4770
    16.0485  16.0493  19.3210  19.6426

          k = 0.1186-0.1186 0.5900 (   749 PWs)   bands (ev):

    -2.6576  -0.3468   2.5934   3.6828   7.2734   8.9406  13.6499  13.6827
    16.8046  16.8540  18.5032  19.1123

          k = 0.2364-0.2364 0.7078 (   740 PWs)   bands (ev):

    -2.4761  -0.5365   1.8215   4.1274   7.7799  12.0152  12.6797  13.2743
    13.6401  13.8401  20.5491  21.1473

          k = 0.0007-0.0007 0.7078 (   740 PWs)   bands (ev):

    -1.5969  -1.5814   3.3844   3.3844   6.9167   6.9202  16.3263  16.3263
    17.1290  17.1291  18.6803  18.6993

          k = 0.1186 0.1171 0.1186 (   748 PWs)   bands (ev):

    -5.3700   3.8393   5.7725   5.7812   8.5617   9.4270   9.4371  11.6667
    13.2647  13.2804  15.3042  16.8641

          k = 0.0007 0.2350 0.2364 (   748 PWs)   bands (ev):

    -4.7833   2.5094   3.8188   5.6652   9.2541   9.7779  10.0570  11.8742
    12.2943  15.5771  16.7045  17.6964

          k = 0.1186 0.1171 0.3543 (   750 PWs)   bands (ev):

    -4.4292   1.7851   4.2302   4.4840   8.1749  10.2741  10.7318  11.2921
    15.2574  15.3473  16.6417  19.1052

          k = 0.2364-0.0007 0.4721 (   748 PWs)   bands (ev):

    -3.4363   0.5740   2.6573   3.9334   9.0739   9.9223  10.4421  13.2781
    15.1970  16.0881  19.2378  19.4040

          k = 0.3543-0.1186 0.5900 (   738 PWs)   bands (ev):

    -2.4597  -0.6151   2.2230   3.4721   9.5638   9.7681  12.2996  12.7312
    13.7566  17.2802  18.1507  19.6965

          k = 0.1186 0.1171 0.5900 (   749 PWs)   bands (ev):

    -2.6589  -0.3453   2.5992   3.6805   7.2704   8.9236  13.6573  13.6981
    16.8126  16.8699  18.4929  19.1024

          k = 0.2364-0.0007 0.7078 (   742 PWs)   bands (ev):

    -1.4761  -1.4623   2.5818   2.5919   8.9602   8.9754  12.9472  12.9650
    16.7473  16.7701  19.1281  19.1511

          k = 0.2364-0.0007 0.9435 (   748 PWs)   bands (ev):

    -3.4466   0.5856   2.6614   3.9453   9.0772   9.9313  10.4303  13.2571
    15.1755  16.1057  19.2158  19.3911

          k = 0.3543 0.1171-0.1171 (   750 PWs)   bands (ev):

    -4.4318   1.7947   4.2295   4.4822   8.1698  10.2643  10.7392  11.2990
    15.2571  15.3377  16.6524  19.0979

          k = 0.8257-0.3543 0.3543 (   757 PWs)   bands (ev):

    -3.6335   0.2258   3.1974   4.9405   8.6641  10.3163  10.4296  13.5015
    13.5184  15.6207  17.6573  18.9514

          k = 0.2364 0.2350 0.2364 (   755 PWs)   bands (ev):

    -4.3537   0.8896   5.2275   5.2338   7.9693   9.7160   9.7219  14.0834
    14.1662  14.1879  15.3257  19.8353

          k = 0.1186 0.3528 0.3543 (   757 PWs)   bands (ev):

    -3.6267   0.2180   3.1903   4.9361   8.6608  10.3210  10.4372  13.4987
    13.5348  15.6093  17.6534  18.9756

          k = 0.2364 0.2350 0.4721 (   752 PWs)   bands (ev):

    -3.2390  -0.3781   3.4462   4.4560   8.2485  10.3306  10.8346  12.6231
    15.6316  16.6387  17.9710  18.0218

          k = 0.3543 0.1171 0.5900 (   738 PWs)   bands (ev):

    -2.4542  -0.6173   2.2189   3.4647   9.5672   9.7749  12.2889  12.7201
    13.7769  17.2838  18.1539  19.7126

          k = 0.0007 0.4707 0.4721 (   740 PWs)   bands (ev):

    -2.4695  -0.5428   1.8207   4.1232   7.7751  11.9975  12.6908  13.2820
    13.6480  13.8507  20.5602  21.1588

          k = 0.4721 0.2350-0.2350 (   752 PWs)   bands (ev):

    -3.2407  -0.3725   3.4423   4.4527   8.2452  10.3399  10.8428  12.6023
    15.6410  16.6486  17.9795  18.0148

          k = 0.5900 0.1171-0.1171 (   749 PWs)   bands (ev):

    -2.6602  -0.3437   2.6050   3.6783   7.2673   8.9065  13.6727  13.7058
    16.8280  16.8785  18.4832  19.0919

          k = 0.8257-0.1186 0.1186 (   749 PWs)   bands (ev):

    -2.6702  -0.3331   2.5985   3.6853   7.2765   8.9448  13.6341  13.6636
    16.8208  16.8737  18.4823  19.0921

          k = 0.9435-0.2364 0.2364 (   752 PWs)   bands (ev):

    -3.2448  -0.3795   3.4651   4.4632   8.2561  10.3063  10.8155  12.6492
    15.6185  16.6483  17.9645  18.0063

          k = 0.3543 0.3528 0.3543 (   754 PWs)   bands (ev):

    -3.4024  -0.7390   5.0346   5.0347   7.7433   9.5481   9.5482  13.9432
    16.7174  16.7181  17.5364  17.5367

          k = 0.1186 0.5885 0.3543 (   738 PWs)   bands (ev):

    -2.4650  -0.6131   2.2272   3.4795   9.5594   9.7624  12.3115  12.7411
    13.7364  17.2772  18.1468  19.6803

          k = 0.2364 0.4707 0.4721 (   752 PWs)   bands (ev):

    -3.2465  -0.3738   3.4611   4.4598   8.2530  10.3151  10.8240  12.6285
    15.6277  16.6580  17.9712  18.0010

          k = 0.3543 0.3528 0.5900 (   757 PWs)   bands (ev):

    -3.6281   0.2272   3.1770   4.9354   8.6615  10.3349  10.4465  13.4815
    13.5178  15.6150  17.6640  18.9833

          k = 0.0007 0.7064 0.4721 (   742 PWs)   bands (ev):

    -1.4770  -1.4632   2.5865   2.5966   8.9404   8.9556  12.9728  12.9906
    16.7473  16.7700  19.1264  19.1494

          k = 0.1186 0.5885 0.5900 (   749 PWs)   bands (ev):

    -2.6714  -0.3315   2.6043   3.6830   7.2735   8.9278  13.6413  13.6794
    16.8291  16.8893  18.4721  19.0821

          k = 0.5900 0.3528-0.3528 (   757 PWs)   bands (ev):

    -3.6213   0.2194   3.1699   4.9310   8.6579  10.3422  10.4518  13.4981
    13.5148  15.6032  17.6605  19.0074

          k = 0.7078 0.2350-0.2350 (   740 PWs)   bands (ev):

    -2.4630  -0.5490   1.8200   4.1191   7.7702  11.9797  12.7024  13.2894
    13.6585  13.8587  20.5712  21.1703

          k = 0.8257 0.1171-0.1171 (   749 PWs)   bands (ev):

    -2.6728  -0.3299   2.6101   3.6808   7.2704   8.9107  13.6570  13.6867
    16.8442  16.8982  18.4625  19.0716

          k = 0.9435-0.0007 0.0007 (   749 PWs)   bands (ev):

    -3.8342   1.2239   3.8203   3.8203   6.9404   8.2026  13.4586  13.4586
    16.0278  16.0357  19.3040  19.6482

          k = 1.0614-0.1186 0.1186 (   750 PWs)   bands (ev):

    -4.4350   1.7874   4.2445   4.4924   8.1868  10.2886  10.7161  11.2724
    15.2449  15.3308  16.6186  19.0958

          k = 0.3543 0.5885-0.1171 (   738 PWs)   bands (ev):

    -2.4596  -0.6152   2.2230   3.4722   9.5622   9.7697  12.3005  12.7303
    13.7566  17.2798  18.1511  19.6965

          k = 0.4721 0.4707 0.4721 (   755 PWs)   bands (ev):

    -4.3587   0.9000   5.2292   5.2352   7.9711   9.7165   9.7229  14.0806
    14.1598  14.1777  15.3188  19.8230

          k = 0.2364 0.7064 0.4721 (   748 PWs)   bands (ev):

    -3.4511   0.5921   2.6697   3.9429   9.0573   9.9157  10.4493  13.2593
    15.1845  16.1294  19.1949  19.3855

          k = 0.3543 0.5885 0.5900 (   750 PWs)   bands (ev):

    -4.4376   1.7971   4.2433   4.4909   8.1818  10.2796  10.7225  11.2794
    15.2407  15.3251  16.6294  19.0882

          k = 0.7078 0.4707-0.4707 (   748 PWs)   bands (ev):

    -4.7778   2.4976   3.8096   5.6614   9.2529   9.7844  10.0629  11.8751
    12.2926  15.5968  16.7112  17.7014

          k = 0.8257 0.3528-0.3528 (   757 PWs)   bands (ev):

    -3.6199   0.2103   3.1833   4.9317   8.6573  10.3281  10.4425  13.5153
    13.5318  15.5977  17.6498  18.9997

          k = 0.9435 0.2350-0.2350 (   752 PWs)   bands (ev):

    -3.2482  -0.3681   3.4571   4.4565   8.2497  10.3243  10.8322  12.6078
    15.6371  16.6677  17.9801  17.9935

          k = 1.0614 0.1171-0.1171 (   750 PWs)   bands (ev):

    -4.4401   1.8067   4.2426   4.4891   8.1767  10.2704  10.7294  11.2863
    15.2406  15.3153  16.6401  19.0809

          k = 1.1792-0.0007 0.0007 (   753 PWs)   bands (ev):

    -5.2514   4.1943   5.0419   5.0419   7.9265  10.5112  10.5519  10.5526
    12.7998  14.4396  15.9660  18.2762

          k = 0.4721 0.7064-0.2350 (   748 PWs)   bands (ev):

    -3.4408   0.5805   2.6656   3.9311   9.0539   9.9065  10.4613  13.2804
    15.2059  16.1119  19.2170  19.3982

          k = 0.5900 0.5885 0.5900 (   748 PWs)   bands (ev):

    -5.3729   3.8519   5.7752   5.7837   8.5643   9.4236   9.4338  11.6547
    13.2663  13.2820  15.3008  16.8614

     Writing output data file Si.save/
 
     init_run     :      0.01s CPU      0.06s WALL (       1 calls)
     electrons    :      3.96s CPU      4.19s WALL (       1 calls)

     Called by init_run:
     wfcinit      :      0.00s CPU      0.00s WALL (       1 calls)
     potinit      :      0.00s CPU      0.05s WALL (       1 calls)
     hinit0       :      0.00s CPU      0.01s WALL (       1 calls)

     Called by electrons:
     c_bands      :      3.96s CPU      4.19s WALL (       1 calls)
     v_of_rho     :      0.00s CPU      0.00s WALL (       1 calls)

     Called by c_bands:
     init_us_2    :      0.00s CPU      0.00s WALL (      56 calls)
     cegterg      :      3.82s CPU      4.03s WALL (     117 calls)

     Called by sum_band:

     Called by *egterg:
     h_psi        :      1.31s CPU      1.39s WALL (    1857 calls)
     g_psi        :      0.01s CPU      0.01s WALL (    1684 calls)
     cdiaghg      :      2.16s CPU      2.28s WALL (    1740 calls)

     Called by h_psi:
     h_psi:pot    :      1.30s CPU      1.38s WALL (    1857 calls)
     h_psi:calbec :      0.05s CPU      0.06s WALL (    1857 calls)
     vloc_psi     :      1.22s CPU      1.29s WALL (    1857 calls)
     add_vuspsi   :      0.01s CPU      0.01s WALL (    1857 calls)

     General routines
     calbec       :      0.04s CPU      0.05s WALL (    1857 calls)
     fft          :      0.00s CPU      0.01s WALL (      10 calls)
     fftw         :      1.14s CPU      1.21s WALL (   25432 calls)
 
     Parallel routines
     fft_scatt_xy :      0.09s CPU      0.09s WALL (   25442 calls)
     fft_scatt_yz :      0.76s CPU      0.81s WALL (   25442 calls)
 
     PWSCF        :      4.26s CPU      8.73s WALL

 
   This run was terminated on:  18:33:34  28Sep2021            

=------------------------------------------------------------------------------=
   JOB DONE.
=------------------------------------------------------------------------------=
