# r2 =      0.00000000     0.00000000     0.00000000 freq =      0.00000000     0.00000000
CRYSTAL
PRIMVEC
     5.43000002     5.43000002     0.00000000
     0.00000000     5.43000002     5.43000002
     5.43000002     0.00000000     5.43000002
CONVVEC
     5.43000002     5.43000002     0.00000000
     0.00000000     5.43000002     5.43000002
     5.43000002     0.00000000     5.43000002
PRIMCOORD
   17     1
   14      0.00000000     0.00000000     0.00000000
   14      1.35750001     1.35750001     1.35750001
   14      2.71500001     2.71500001     0.00000000
   14      4.07250002     4.07250002     1.35750001
   14      0.00000000     2.71500001     2.71500001
   14      1.35750001     4.07250002     4.07250002
   14      2.71500001     5.43000002     2.71500001
   14      4.07250002     6.78750003     4.07250002
   14      2.71500001     0.00000000     2.71500001
   14      4.07250002     1.35750001     4.07250002
   14      5.43000002     2.71500001     2.71500001
   14      6.78750003     4.07250002     4.07250002
   14      2.71500001     2.71500001     5.43000002
   14      4.07250002     4.07250002     6.78750003
   14      5.43000002     5.43000002     5.43000002
   14      6.78750003     6.78750003     6.78750003
    1      0.00000000     0.00000000     0.00000000
BEGIN_BLOCK_DATAGRID_3D
  abs2_epsinv
  BEGIN_DATAGRID_3D_abs2_epsinv
   13   13   13
     0.00000000     0.00000000     0.00000000
     5.43000002     5.43000002     0.00000000
     0.00000000     5.43000002     5.43000002
     5.43000002     0.00000000     5.43000002
  6.98720E-05    4.59131E-05    3.73595E-06    1.40422E-06    1.54934E-07
  2.07970E-08    2.95946E-07    2.07970E-08    1.54934E-07    1.40422E-06
  3.73595E-06    4.59131E-05    6.98720E-05    4.59131E-05    2.54324E-06
  5.13549E-06    8.22924E-07    1.23049E-07    1.07892E-07    1.07892E-07
  1.23049E-07    8.22924E-07    5.13549E-06    2.54324E-06    4.59131E-05
  4.59131E-05    3.73595E-06    5.13549E-06    1.94705E-06    1.58155E-07
  1.07167E-08    2.38422E-07    1.07167E-08    1.58155E-07    1.94705E-06
  5.13549E-06    3.73595E-06    2.59405E-05    3.73595E-06    1.40422E-06
  8.22924E-07    1.58155E-07    2.63025E-08    3.82199E-08    3.82199E-08
  2.63025E-08    1.58155E-07    8.22924E-07    1.40422E-06    9.43286E-07
  9.43286E-07    1.40422E-06    1.54934E-07    1.23049E-07    1.07167E-08
  3.82199E-08    1.73205E-07    3.82199E-08    1.07167E-08    1.23049E-07
  1.54934E-07    2.84346E-07    3.16183E-08    2.84346E-07    1.54934E-07
  2.07970E-08    1.07892E-07    2.38422E-07    3.82199E-08    3.82199E-08
  2.38422E-07    1.07892E-07    2.07970E-08    4.69220E-09    3.14205E-09
  3.14204E-09    4.69220E-09    2.07970E-08    2.95946E-07    1.07892E-07
  1.07167E-08    2.63025E-08    1.07167E-08    1.07892E-07    2.95946E-07
  6.43885E-08    7.30221E-11    2.36649E-09    7.30220E-11    6.43885E-08
  2.95946E-07    2.07970E-08    1.23049E-07    1.58155E-07    1.58155E-07
  1.23049E-07    2.07970E-08    6.43885E-08    1.49176E-08    4.01577E-09
  4.01577E-09    1.49176E-08    6.43885E-08    2.07970E-08    1.54934E-07
  8.22924E-07    1.94705E-06    8.22924E-07    1.54934E-07    4.69220E-09
  7.30222E-11    4.01577E-09    1.16246E-07    4.01577E-09    7.30224E-11
  4.69220E-09    1.54934E-07    1.40422E-06    5.13549E-06    5.13549E-06
  1.40422E-06    2.84346E-07    3.14205E-09    2.36649E-09    4.01577E-09
  4.01577E-09    2.36648E-09    3.14204E-09    2.84346E-07    1.40422E-06
  3.73595E-06    2.54324E-06    3.73595E-06    9.43286E-07    3.16183E-08
  3.14204E-09    7.30217E-11    1.49176E-08    7.30222E-11    3.14205E-09
  3.16183E-08    9.43286E-07    3.73595E-06    4.59131E-05    4.59131E-05
  2.59405E-05    9.43286E-07    2.84346E-07    4.69221E-09    6.43885E-08
  6.43885E-08    4.69220E-09    2.84346E-07    9.43286E-07    2.59405E-05
  4.59131E-05    6.98720E-05    4.59131E-05    3.73595E-06    1.40422E-06
  1.54934E-07    2.07970E-08    2.95946E-07    2.07970E-08    1.54934E-07
  1.40422E-06    3.73595E-06    4.59131E-05    6.98720E-05  

  4.59131E-05    2.54324E-06    5.13549E-06    8.22924E-07    1.23049E-07
  1.07892E-07    1.07892E-07    1.23049E-07    8.22924E-07    5.13549E-06
  2.54324E-06    4.59131E-05    4.59131E-05    2.54324E-06    1.34749E-05
  6.00538E-06    4.51422E-08    8.45075E-09    3.18995E-07    8.45075E-09
  4.51422E-08    6.00538E-06    1.34749E-05    2.54324E-06    3.12031E-05
  2.54324E-06    5.13549E-06    6.00538E-06    6.81399E-08    4.00995E-07
  7.51276E-07    7.51276E-07    4.00995E-07    6.81400E-08    6.00538E-06
  5.13549E-06    3.12980E-06    3.12980E-06    5.13549E-06    8.22924E-07
  4.51422E-08    4.00995E-07    1.04119E-06    2.74537E-08    1.04119E-06
  4.00995E-07    4.51422E-08    8.22924E-07    4.29155E-07    1.02680E-07
  4.29155E-07    8.22924E-07    1.23049E-07    8.45075E-09    7.51276E-07
  2.74537E-08    2.74537E-08    7.51276E-07    8.45075E-09    1.23049E-07
  2.02499E-09    4.57764E-09    4.57764E-09    2.02499E-09    1.23049E-07
  1.07892E-07    3.18995E-07    7.51276E-07    1.04119E-06    7.51276E-07
  3.18995E-07    1.07892E-07    1.55657E-09    2.54643E-08    2.48302E-08
  2.54643E-08    1.55657E-09    1.07892E-07    1.07892E-07    8.45076E-09
  4.00995E-07    4.00995E-07    8.45075E-09    1.07892E-07    1.94765E-07
  3.90516E-09    7.34013E-09    7.34013E-09    3.90516E-09    1.94765E-07
  1.07892E-07    1.23049E-07    4.51422E-08    6.81399E-08    4.51422E-08
  1.23049E-07    1.55657E-09    3.90516E-09    2.87558E-08    1.36626E-07
  2.87558E-08    3.90516E-09    1.55657E-09    1.23049E-07    8.22924E-07
  6.00538E-06    6.00538E-06    8.22924E-07    2.02499E-09    2.54643E-08
  7.34013E-09    1.36626E-07    1.36626E-07    7.34013E-09    2.54643E-08
  2.02499E-09    8.22924E-07    5.13549E-06    1.34749E-05    5.13549E-06
  4.29155E-07    4.57764E-09    2.48302E-08    7.34013E-09    2.87558E-08
  7.34013E-09    2.48302E-08    4.57764E-09    4.29155E-07    5.13549E-06
  2.54324E-06    2.54324E-06    3.12980E-06    1.02680E-07    4.57764E-09
  2.54643E-08    3.90516E-09    3.90516E-09    2.54643E-08    4.57764E-09
  1.02680E-07    3.12980E-06    2.54324E-06    4.59131E-05    3.12031E-05
  3.12980E-06    4.29155E-07    2.02499E-09    1.55657E-09    1.94765E-07
  1.55657E-09    2.02499E-09    4.29155E-07    3.12980E-06    3.12031E-05
  4.59131E-05    4.59131E-05    2.54324E-06    5.13549E-06    8.22924E-07
  1.23049E-07    1.07892E-07    1.07892E-07    1.23049E-07    8.22924E-07
  5.13549E-06    2.54324E-06    4.59131E-05    4.59131E-05  

  3.73595E-06    5.13549E-06    1.94705E-06    1.58155E-07    1.07167E-08
  2.38422E-07    1.07167E-08    1.58155E-07    1.94705E-06    5.13549E-06
  3.73595E-06    2.59405E-05    3.73595E-06    5.13549E-06    6.00538E-06
  6.81400E-08    4.00995E-07    7.51276E-07    7.51276E-07    4.00995E-07
  6.81399E-08    6.00538E-06    5.13549E-06    3.12980E-06    3.12980E-06
  5.13549E-06    1.94705E-06    6.81399E-08    1.82020E-06    3.20155E-06
  5.78899E-07    3.20155E-06    1.82020E-06    6.81400E-08    1.94705E-06
  7.34547E-07    1.89335E-07    7.34547E-07    1.94705E-06    1.58155E-07
  4.00995E-07    3.20155E-06    5.37229E-08    5.37229E-08    3.20155E-06
  4.00995E-07    1.58155E-07    3.29423E-08    1.20653E-07    1.20653E-07
  3.29423E-08    1.58155E-07    1.07167E-08    7.51276E-07    5.78899E-07
  5.37229E-08    5.78899E-07    7.51276E-07    1.07167E-08    6.53156E-08
  2.52425E-08    1.86396E-09    2.52425E-08    6.53156E-08    1.07167E-08
  2.38422E-07    7.51276E-07    3.20155E-06    3.20155E-06    7.51276E-07
  2.38422E-07    1.31663E-07    2.35738E-09    3.00764E-08    3.00764E-08
  2.35738E-09    1.31663E-07    2.38422E-07    1.07167E-08    4.00995E-07
  1.82020E-06    4.00995E-07    1.07167E-08    1.31663E-07    3.24799E-08
  9.26636E-09    1.36815E-08    9.26636E-09    3.24798E-08    1.31663E-07
  1.07167E-08    1.58155E-07    6.81399E-08    6.81400E-08    1.58155E-07
  6.53156E-08    2.35738E-09    9.26636E-09    5.18451E-08    5.18451E-08
  9.26636E-09    2.35738E-09    6.53156E-08    1.58155E-07    1.94705E-06
  6.00538E-06    1.94705E-06    3.29423E-08    2.52425E-08    3.00764E-08
  1.36815E-08    5.18451E-08    1.36815E-08    3.00764E-08    2.52425E-08
  3.29423E-08    1.94705E-06    5.13549E-06    5.13549E-06    7.34547E-07
  1.20653E-07    1.86396E-09    3.00764E-08    9.26636E-09    9.26637E-09
  3.00764E-08    1.86396E-09    1.20653E-07    7.34547E-07    5.13549E-06
  3.73595E-06    3.12980E-06    1.89335E-07    1.20653E-07    2.52425E-08
  2.35738E-09    3.24798E-08    2.35738E-09    2.52425E-08    1.20653E-07
  1.89335E-07    3.12980E-06    3.73595E-06    2.59405E-05    3.12980E-06
  7.34547E-07    3.29423E-08    6.53156E-08    1.31663E-07    1.31663E-07
  6.53156E-08    3.29423E-08    7.34547E-07    3.12980E-06    2.59405E-05
  2.59405E-05    3.73595E-06    5.13549E-06    1.94705E-06    1.58155E-07
  1.07167E-08    2.38422E-07    1.07167E-08    1.58155E-07    1.94705E-06
  5.13549E-06    3.73595E-06    2.59405E-05    3.73595E-06  

  1.40422E-06    8.22924E-07    1.58155E-07    2.63025E-08    3.82199E-08
  3.82199E-08    2.63025E-08    1.58155E-07    8.22924E-07    1.40422E-06
  9.43286E-07    9.43286E-07    1.40422E-06    8.22924E-07    4.51422E-08
  4.00995E-07    1.04119E-06    2.74537E-08    1.04119E-06    4.00995E-07
  4.51422E-08    8.22924E-07    4.29155E-07    1.02680E-07    4.29155E-07
  8.22924E-07    1.58155E-07    4.00995E-07    3.20155E-06    5.37229E-08
  5.37229E-08    3.20155E-06    4.00995E-07    1.58155E-07    3.29423E-08
  1.20653E-07    1.20653E-07    3.29423E-08    1.58155E-07    2.63025E-08
  1.04119E-06    5.37229E-08    8.63651E-07    5.37229E-08    1.04119E-06
  2.63025E-08    6.02555E-08    8.51761E-10    5.09795E-08    8.51760E-10
  6.02555E-08    2.63025E-08    3.82199E-08    2.74537E-08    5.37229E-08
  5.37229E-08    2.74537E-08    3.82199E-08    5.49179E-08    6.49838E-11
  1.17042E-08    1.17042E-08    6.49837E-11    5.49179E-08    3.82199E-08
  3.82199E-08    1.04119E-06    3.20155E-06    1.04119E-06    3.82199E-08
  8.13768E-08    4.02195E-08    4.29293E-09    1.02239E-08    4.29293E-09
  4.02195E-08    8.13768E-08    3.82199E-08    2.63025E-08    4.00995E-07
  4.00995E-07    2.63025E-08    5.49179E-08    4.02195E-08    1.06260E-09
  6.36647E-10    6.36647E-10    1.06260E-09    4.02195E-08    5.49179E-08
  2.63025E-08    1.58155E-07    4.51422E-08    1.58155E-07    6.02555E-08
  6.49837E-11    4.29293E-09    6.36647E-10    2.23940E-11    6.36647E-10
  4.29293E-09    6.49838E-11    6.02555E-08    1.58155E-07    8.22924E-07
  8.22924E-07    3.29423E-08    8.51761E-10    1.17042E-08    1.02239E-08
  6.36647E-10    6.36648E-10    1.02239E-08    1.17042E-08    8.51760E-10
  3.29423E-08    8.22924E-07    1.40422E-06    4.29155E-07    1.20653E-07
  5.09795E-08    1.17042E-08    4.29293E-09    1.06260E-09    4.29293E-09
  1.17042E-08    5.09795E-08    1.20653E-07    4.29155E-07    1.40422E-06
  9.43286E-07    1.02680E-07    1.20653E-07    8.51761E-10    6.49837E-11
  4.02195E-08    4.02195E-08    6.49838E-11    8.51761E-10    1.20653E-07
  1.02680E-07    9.43286E-07    9.43286E-07    9.43286E-07    4.29155E-07
  3.29423E-08    6.02555E-08    5.49179E-08    8.13768E-08    5.49179E-08
  6.02555E-08    3.29423E-08    4.29155E-07    9.43286E-07    4.90752E-06
  9.43286E-07    1.40422E-06    8.22924E-07    1.58155E-07    2.63025E-08
  3.82199E-08    3.82199E-08    2.63025E-08    1.58155E-07    8.22924E-07
  1.40422E-06    9.43286E-07    9.43286E-07    1.40422E-06  

  1.54934E-07    1.23049E-07    1.07167E-08    3.82199E-08    1.73205E-07
  3.82199E-08    1.07167E-08    1.23049E-07    1.54934E-07    2.84346E-07
  3.16183E-08    2.84346E-07    1.54934E-07    1.23049E-07    8.45075E-09
  7.51276E-07    2.74537E-08    2.74537E-08    7.51276E-07    8.45076E-09
  1.23049E-07    2.02499E-09    4.57764E-09    4.57764E-09    2.02499E-09
  1.23049E-07    1.07167E-08    7.51276E-07    5.78899E-07    5.37229E-08
  5.78899E-07    7.51276E-07    1.07167E-08    6.53156E-08    2.52425E-08
  1.86396E-09    2.52425E-08    6.53156E-08    1.07167E-08    3.82199E-08
  2.74537E-08    5.37229E-08    5.37229E-08    2.74537E-08    3.82199E-08
  5.49179E-08    6.49837E-11    1.17042E-08    1.17042E-08    6.49838E-11
  5.49179E-08    3.82199E-08    1.73205E-07    2.74537E-08    5.78899E-07
  2.74537E-08    1.73205E-07    4.19696E-09    2.92896E-08    2.89724E-10
  1.06109E-08    2.89725E-10    2.92896E-08    4.19696E-09    1.73205E-07
  3.82199E-08    7.51276E-07    7.51276E-07    3.82199E-08    4.19696E-09
  5.19102E-10    1.36763E-09    1.39119E-10    1.39119E-10    1.36763E-09
  5.19102E-10    4.19696E-09    3.82199E-08    1.07167E-08    8.45075E-09
  1.07167E-08    5.49179E-08    2.92896E-08    1.36763E-09    3.92151E-10
  5.32003E-10    3.92151E-10    1.36763E-09    2.92896E-08    5.49179E-08
  1.07167E-08    1.23049E-07    1.23049E-07    6.53156E-08    6.49838E-11
  2.89725E-10    1.39119E-10    5.32003E-10    5.32003E-10    1.39119E-10
  2.89724E-10    6.49838E-11    6.53156E-08    1.23049E-07    1.54934E-07
  2.02499E-09    2.52425E-08    1.17042E-08    1.06109E-08    1.39119E-10
  3.92150E-10    1.39119E-10    1.06109E-08    1.17042E-08    2.52425E-08
  2.02499E-09    1.54934E-07    2.84346E-07    4.57764E-09    1.86396E-09
  1.17042E-08    2.89725E-10    1.36763E-09    1.36763E-09    2.89724E-10
  1.17042E-08    1.86396E-09    4.57764E-09    2.84346E-07    2.84346E-07
  3.16183E-08    4.57764E-09    2.52425E-08    6.49838E-11    2.92896E-08
  5.19102E-10    2.92896E-08    6.49838E-11    2.52425E-08    4.57764E-09
  3.16183E-08    6.32531E-08    3.16183E-08    2.84346E-07    2.02499E-09
  6.53156E-08    5.49179E-08    4.19696E-09    4.19696E-09    5.49179E-08
  6.53156E-08    2.02499E-09    2.84346E-07    6.32531E-08    6.32531E-08
  2.84346E-07    1.54934E-07    1.23049E-07    1.07167E-08    3.82199E-08
  1.73205E-07    3.82199E-08    1.07167E-08    1.23049E-07    1.54934E-07
  2.84346E-07    3.16183E-08    2.84346E-07    1.54934E-07  

  2.07970E-08    1.07892E-07    2.38422E-07    3.82199E-08    3.82199E-08
  2.38422E-07    1.07892E-07    2.07970E-08    4.69221E-09    3.14204E-09
  3.14205E-09    4.69220E-09    2.07970E-08    1.07892E-07    3.18995E-07
  7.51276E-07    1.04119E-06    7.51276E-07    3.18995E-07    1.07892E-07
  1.55657E-09    2.54643E-08    2.48302E-08    2.54643E-08    1.55657E-09
  1.07892E-07    2.38422E-07    7.51276E-07    3.20155E-06    3.20155E-06
  7.51276E-07    2.38422E-07    1.31663E-07    2.35738E-09    3.00764E-08
  3.00764E-08    2.35738E-09    1.31663E-07    2.38422E-07    3.82199E-08
  1.04119E-06    3.20155E-06    1.04119E-06    3.82199E-08    8.13768E-08
  4.02195E-08    4.29293E-09    1.02239E-08    4.29293E-09    4.02195E-08
  8.13768E-08    3.82199E-08    3.82199E-08    7.51276E-07    7.51276E-07
  3.82199E-08    4.19696E-09    5.19102E-10    1.36763E-09    1.39119E-10
  1.39119E-10    1.36763E-09    5.19102E-10    4.19696E-09    3.82199E-08
  2.38422E-07    3.18995E-07    2.38422E-07    8.13768E-08    5.19102E-10
  2.28419E-08    8.45521E-09    7.38926E-09    8.45522E-09    2.28419E-08
  5.19102E-10    8.13768E-08    2.38422E-07    1.07892E-07    1.07892E-07
  1.31663E-07    4.02195E-08    1.36763E-09    8.45522E-09    6.12919E-08
  6.12919E-08    8.45522E-09    1.36763E-09    4.02195E-08    1.31663E-07
  1.07892E-07    2.07970E-08    1.55657E-09    2.35738E-09    4.29293E-09
  1.39119E-10    7.38926E-09    6.12919E-08    7.38926E-09    1.39119E-10
  4.29293E-09    2.35738E-09    1.55657E-09    2.07970E-08    4.69221E-09
  2.54643E-08    3.00764E-08    1.02239E-08    1.39119E-10    8.45522E-09
  8.45521E-09    1.39119E-10    1.02239E-08    3.00764E-08    2.54643E-08
  4.69220E-09    4.69221E-09    3.14204E-09    2.48302E-08    3.00764E-08
  4.29293E-09    1.36763E-09    2.28419E-08    1.36763E-09    4.29293E-09
  3.00764E-08    2.48302E-08    3.14205E-09    4.14817E-09    3.14204E-09
  3.14204E-09    2.54643E-08    2.35738E-09    4.02195E-08    5.19102E-10
  5.19102E-10    4.02195E-08    2.35738E-09    2.54643E-08    3.14204E-09
  3.86940E-10    3.86940E-10    3.14204E-09    4.69220E-09    1.55657E-09
  1.31663E-07    8.13768E-08    4.19696E-09    8.13768E-08    1.31663E-07
  1.55657E-09    4.69220E-09    4.14817E-09    3.86940E-10    4.14817E-09
  4.69220E-09    2.07970E-08    1.07892E-07    2.38422E-07    3.82199E-08
  3.82199E-08    2.38422E-07    1.07892E-07    2.07970E-08    4.69221E-09
  3.14204E-09    3.14205E-09    4.69220E-09    2.07970E-08  

  2.95946E-07    1.07892E-07    1.07167E-08    2.63025E-08    1.07167E-08
  1.07892E-07    2.95946E-07    6.43885E-08    7.30219E-11    2.36649E-09
  7.30223E-11    6.43885E-08    2.95946E-07    1.07892E-07    8.45075E-09
  4.00995E-07    4.00995E-07    8.45075E-09    1.07892E-07    1.94765E-07
  3.90516E-09    7.34013E-09    7.34013E-09    3.90516E-09    1.94765E-07
  1.07892E-07    1.07167E-08    4.00995E-07    1.82020E-06    4.00995E-07
  1.07167E-08    1.31663E-07    3.24798E-08    9.26636E-09    1.36815E-08
  9.26636E-09    3.24799E-08    1.31663E-07    1.07167E-08    2.63025E-08
  4.00995E-07    4.00995E-07    2.63025E-08    5.49179E-08    4.02195E-08
  1.06260E-09    6.36646E-10    6.36648E-10    1.06260E-09    4.02195E-08
  5.49179E-08    2.63025E-08    1.07167E-08    8.45075E-09    1.07167E-08
  5.49179E-08    2.92896E-08    1.36763E-09    3.92150E-10    5.32003E-10
  3.92152E-10    1.36763E-09    2.92896E-08    5.49179E-08    1.07167E-08
  1.07892E-07    1.07892E-07    1.31663E-07    4.02195E-08    1.36763E-09
  8.45522E-09    6.12919E-08    6.12919E-08    8.45522E-09    1.36763E-09
  4.02195E-08    1.31663E-07    1.07892E-07    2.95946E-07    1.94765E-07
  3.24798E-08    1.06260E-09    3.92151E-10    6.12919E-08    2.94351E-07
  6.12919E-08    3.92152E-10    1.06260E-09    3.24799E-08    1.94765E-07
  2.95946E-07    6.43885E-08    3.90516E-09    9.26636E-09    6.36646E-10
  5.32002E-10    6.12919E-08    6.12919E-08    5.32002E-10    6.36648E-10
  9.26636E-09    3.90516E-09    6.43885E-08    6.43885E-08    7.30217E-11
  7.34014E-09    1.36815E-08    6.36646E-10    3.92152E-10    8.45522E-09
  3.92151E-10    6.36647E-10    1.36815E-08    7.34013E-09    7.30225E-11
  5.35136E-10    7.30217E-11    2.36649E-09    7.34014E-09    9.26636E-09
  1.06260E-09    1.36763E-09    1.36763E-09    1.06260E-09    9.26636E-09
  7.34013E-09    2.36649E-09    1.38534E-08    1.38534E-08    2.36649E-09
  7.30220E-11    3.90516E-09    3.24799E-08    4.02195E-08    2.92896E-08
  4.02195E-08    3.24798E-08    3.90516E-09    7.30224E-11    1.38534E-08
  5.00941E-08    1.38534E-08    7.30220E-11    6.43885E-08    1.94765E-07
  1.31663E-07    5.49179E-08    5.49179E-08    1.31663E-07    1.94765E-07
  6.43885E-08    5.35135E-10    1.38534E-08    1.38534E-08    5.35136E-10
  6.43885E-08    2.95946E-07    1.07892E-07    1.07167E-08    2.63025E-08
  1.07167E-08    1.07892E-07    2.95946E-07    6.43885E-08    7.30219E-11
  2.36649E-09    7.30223E-11    6.43885E-08    2.95946E-07  

  2.07970E-08    1.23049E-07    1.58155E-07    1.58155E-07    1.23049E-07
  2.07970E-08    6.43885E-08    1.49176E-08    4.01577E-09    4.01577E-09
  1.49176E-08    6.43885E-08    2.07970E-08    1.23049E-07    4.51422E-08
  6.81400E-08    4.51422E-08    1.23049E-07    1.55657E-09    3.90516E-09
  2.87558E-08    1.36626E-07    2.87558E-08    3.90516E-09    1.55657E-09
  1.23049E-07    1.58155E-07    6.81400E-08    6.81399E-08    1.58155E-07
  6.53156E-08    2.35738E-09    9.26636E-09    5.18451E-08    5.18451E-08
  9.26636E-09    2.35738E-09    6.53156E-08    1.58155E-07    1.58155E-07
  4.51422E-08    1.58155E-07    6.02555E-08    6.49838E-11    4.29293E-09
  6.36645E-10    2.23941E-11    6.36648E-10    4.29293E-09    6.49838E-11
  6.02555E-08    1.58155E-07    1.23049E-07    1.23049E-07    6.53156E-08
  6.49838E-11    2.89724E-10    1.39118E-10    5.32003E-10    5.32002E-10
  1.39119E-10    2.89725E-10    6.49838E-11    6.53156E-08    1.23049E-07
  2.07970E-08    1.55657E-09    2.35738E-09    4.29293E-09    1.39119E-10
  7.38926E-09    6.12919E-08    7.38926E-09    1.39119E-10    4.29293E-09
  2.35738E-09    1.55657E-09    2.07970E-08    6.43885E-08    3.90516E-09
  9.26636E-09    6.36645E-10    5.32002E-10    6.12919E-08    6.12919E-08
  5.32003E-10    6.36647E-10    9.26636E-09    3.90516E-09    6.43885E-08
  6.43885E-08    1.49176E-08    2.87558E-08    5.18450E-08    2.23944E-11
  5.32002E-10    7.38927E-09    5.32003E-10    2.23939E-11    5.18451E-08
  2.87558E-08    1.49176E-08    6.28314E-08    1.49176E-08    4.01577E-09
  1.36626E-07    5.18451E-08    6.36646E-10    1.39119E-10    1.39119E-10
  6.36646E-10    5.18451E-08    1.36626E-07    4.01577E-09    6.27774E-08
  6.27774E-08    4.01577E-09    4.01577E-09    2.87558E-08    9.26636E-09
  4.29293E-09    2.89724E-10    4.29293E-09    9.26636E-09    2.87558E-08
  4.01577E-09    2.64736E-08    3.66753E-08    2.64736E-08    4.01577E-09
  1.49176E-08    3.90516E-09    2.35738E-09    6.49838E-11    6.49837E-11
  2.35738E-09    3.90516E-09    1.49176E-08    6.27774E-08    3.66753E-08
  3.66753E-08    6.27774E-08    1.49176E-08    6.43885E-08    1.55657E-09
  6.53156E-08    6.02555E-08    6.53156E-08    1.55657E-09    6.43885E-08
  6.28314E-08    6.27774E-08    2.64736E-08    6.27774E-08    6.28314E-08
  6.43885E-08    2.07970E-08    1.23049E-07    1.58155E-07    1.58155E-07
  1.23049E-07    2.07970E-08    6.43885E-08    1.49176E-08    4.01577E-09
  4.01577E-09    1.49176E-08    6.43885E-08    2.07970E-08  

  1.54934E-07    8.22924E-07    1.94705E-06    8.22924E-07    1.54934E-07
  4.69220E-09    7.30222E-11    4.01577E-09    1.16246E-07    4.01577E-09
  7.30222E-11    4.69220E-09    1.54934E-07    8.22924E-07    6.00538E-06
  6.00538E-06    8.22924E-07    2.02499E-09    2.54643E-08    7.34013E-09
  1.36626E-07    1.36626E-07    7.34014E-09    2.54643E-08    2.02499E-09
  8.22924E-07    1.94705E-06    6.00538E-06    1.94705E-06    3.29423E-08
  2.52425E-08    3.00764E-08    1.36815E-08    5.18451E-08    1.36815E-08
  3.00764E-08    2.52425E-08    3.29423E-08    1.94705E-06    8.22924E-07
  8.22924E-07    3.29423E-08    8.51761E-10    1.17042E-08    1.02239E-08
  6.36646E-10    6.36647E-10    1.02239E-08    1.17042E-08    8.51760E-10
  3.29423E-08    8.22924E-07    1.54934E-07    2.02499E-09    2.52425E-08
  1.17042E-08    1.06109E-08    1.39119E-10    3.92151E-10    1.39119E-10
  1.06109E-08    1.17042E-08    2.52425E-08    2.02499E-09    1.54934E-07
  4.69221E-09    2.54643E-08    3.00764E-08    1.02239E-08    1.39119E-10
  8.45522E-09    8.45521E-09    1.39119E-10    1.02239E-08    3.00764E-08
  2.54643E-08    4.69220E-09    4.69221E-09    7.30219E-11    7.34013E-09
  1.36815E-08    6.36645E-10    3.92151E-10    8.45522E-09    3.92150E-10
  6.36647E-10    1.36815E-08    7.34013E-09    7.30219E-11    5.35137E-10
  7.30219E-11    4.01577E-09    1.36626E-07    5.18450E-08    6.36646E-10
  1.39119E-10    1.39119E-10    6.36647E-10    5.18451E-08    1.36626E-07
  4.01577E-09    6.27774E-08    6.27774E-08    4.01577E-09    1.16246E-07
  1.36626E-07    1.36815E-08    1.02239E-08    1.06109E-08    1.02239E-08
  1.36815E-08    1.36626E-07    1.16246E-07    5.81975E-09    5.28682E-08
  5.81975E-09    1.16246E-07    4.01577E-09    7.34013E-09    3.00764E-08
  1.17042E-08    1.17042E-08    3.00764E-08    7.34013E-09    4.01577E-09
  5.81975E-09    7.41820E-09    7.41820E-09    5.81975E-09    4.01577E-09
  7.30218E-11    2.54643E-08    2.52425E-08    8.51761E-10    2.52425E-08
  2.54643E-08    7.30221E-11    6.27774E-08    5.28682E-08    7.41820E-09
  5.28682E-08    6.27774E-08    7.30218E-11    4.69220E-09    2.02499E-09
  3.29423E-08    3.29423E-08    2.02499E-09    4.69220E-09    5.35135E-10
  6.27774E-08    5.81975E-09    5.81974E-09    6.27774E-08    5.35137E-10
  4.69220E-09    1.54934E-07    8.22924E-07    1.94705E-06    8.22924E-07
  1.54934E-07    4.69220E-09    7.30222E-11    4.01577E-09    1.16246E-07
  4.01577E-09    7.30222E-11    4.69220E-09    1.54934E-07  

  1.40422E-06    5.13549E-06    5.13549E-06    1.40422E-06    2.84346E-07
  3.14204E-09    2.36649E-09    4.01577E-09    4.01577E-09    2.36649E-09
  3.14205E-09    2.84346E-07    1.40422E-06    5.13549E-06    1.34749E-05
  5.13549E-06    4.29155E-07    4.57764E-09    2.48302E-08    7.34013E-09
  2.87558E-08    7.34013E-09    2.48302E-08    4.57764E-09    4.29155E-07
  5.13549E-06    5.13549E-06    5.13549E-06    7.34547E-07    1.20653E-07
  1.86396E-09    3.00764E-08    9.26636E-09    9.26636E-09    3.00764E-08
  1.86396E-09    1.20653E-07    7.34547E-07    5.13549E-06    1.40422E-06
  4.29155E-07    1.20653E-07    5.09795E-08    1.17042E-08    4.29293E-09
  1.06260E-09    4.29293E-09    1.17042E-08    5.09795E-08    1.20653E-07
  4.29155E-07    1.40422E-06    2.84346E-07    4.57764E-09    1.86396E-09
  1.17042E-08    2.89724E-10    1.36763E-09    1.36763E-09    2.89725E-10
  1.17042E-08    1.86396E-09    4.57764E-09    2.84346E-07    2.84346E-07
  3.14204E-09    2.48302E-08    3.00764E-08    4.29293E-09    1.36763E-09
  2.28419E-08    1.36763E-09    4.29293E-09    3.00764E-08    2.48302E-08
  3.14204E-09    4.14817E-09    3.14204E-09    2.36648E-09    7.34013E-09
  9.26636E-09    1.06260E-09    1.36763E-09    1.36763E-09    1.06260E-09
  9.26636E-09    7.34014E-09    2.36649E-09    1.38534E-08    1.38534E-08
  2.36648E-09    4.01577E-09    2.87558E-08    9.26636E-09    4.29293E-09
  2.89725E-10    4.29293E-09    9.26636E-09    2.87558E-08    4.01577E-09
  2.64736E-08    3.66753E-08    2.64736E-08    4.01577E-09    4.01577E-09
  7.34013E-09    3.00764E-08    1.17042E-08    1.17042E-08    3.00764E-08
  7.34014E-09    4.01577E-09    5.81974E-09    7.41820E-09    7.41820E-09
  5.81975E-09    4.01577E-09    2.36648E-09    2.48302E-08    1.86396E-09
  5.09795E-08    1.86396E-09    2.48302E-08    2.36649E-09    2.64736E-08
  7.41820E-09    3.50401E-07    7.41820E-09    2.64736E-08    2.36648E-09
  3.14204E-09    4.57764E-09    1.20653E-07    1.20653E-07    4.57764E-09
  3.14204E-09    1.38534E-08    3.66753E-08    7.41820E-09    7.41820E-09
  3.66753E-08    1.38534E-08    3.14204E-09    2.84346E-07    4.29155E-07
  7.34547E-07    4.29155E-07    2.84346E-07    4.14817E-09    1.38534E-08
  2.64736E-08    5.81975E-09    2.64736E-08    1.38534E-08    4.14817E-09
  2.84346E-07    1.40422E-06    5.13549E-06    5.13549E-06    1.40422E-06
  2.84346E-07    3.14204E-09    2.36649E-09    4.01577E-09    4.01577E-09
  2.36649E-09    3.14205E-09    2.84346E-07    1.40422E-06  

  3.73595E-06    2.54324E-06    3.73595E-06    9.43286E-07    3.16183E-08
  3.14205E-09    7.30223E-11    1.49176E-08    7.30216E-11    3.14204E-09
  3.16183E-08    9.43286E-07    3.73595E-06    2.54324E-06    2.54324E-06
  3.12980E-06    1.02680E-07    4.57764E-09    2.54643E-08    3.90516E-09
  3.90516E-09    2.54643E-08    4.57764E-09    1.02680E-07    3.12980E-06
  2.54324E-06    3.73595E-06    3.12980E-06    1.89335E-07    1.20653E-07
  2.52425E-08    2.35738E-09    3.24799E-08    2.35738E-09    2.52425E-08
  1.20653E-07    1.89335E-07    3.12980E-06    3.73595E-06    9.43286E-07
  1.02680E-07    1.20653E-07    8.51761E-10    6.49837E-11    4.02195E-08
  4.02195E-08    6.49838E-11    8.51760E-10    1.20653E-07    1.02680E-07
  9.43286E-07    9.43286E-07    3.16183E-08    4.57764E-09    2.52425E-08
  6.49838E-11    2.92896E-08    5.19102E-10    2.92896E-08    6.49838E-11
  2.52425E-08    4.57764E-09    3.16183E-08    6.32531E-08    3.16183E-08
  3.14204E-09    2.54643E-08    2.35738E-09    4.02195E-08    5.19102E-10
  5.19102E-10    4.02195E-08    2.35738E-09    2.54643E-08    3.14204E-09
  3.86940E-10    3.86940E-10    3.14204E-09    7.30220E-11    3.90516E-09
  3.24798E-08    4.02195E-08    2.92896E-08    4.02195E-08    3.24799E-08
  3.90516E-09    7.30220E-11    1.38534E-08    5.00941E-08    1.38534E-08
  7.30220E-11    1.49176E-08    3.90516E-09    2.35738E-09    6.49838E-11
  6.49838E-11    2.35738E-09    3.90516E-09    1.49176E-08    6.27774E-08
  3.66753E-08    3.66753E-08    6.27774E-08    1.49176E-08    7.30220E-11
  2.54643E-08    2.52425E-08    8.51761E-10    2.52425E-08    2.54643E-08
  7.30222E-11    6.27774E-08    5.28682E-08    7.41820E-09    5.28682E-08
  6.27774E-08    7.30220E-11    3.14204E-09    4.57764E-09    1.20653E-07
  1.20653E-07    4.57764E-09    3.14205E-09    1.38534E-08    3.66753E-08
  7.41820E-09    7.41820E-09    3.66753E-08    1.38534E-08    3.14204E-09
  3.16183E-08    1.02680E-07    1.89335E-07    1.02680E-07    3.16183E-08
  3.86940E-10    5.00941E-08    3.66753E-08    5.28682E-08    3.66753E-08
  5.00941E-08    3.86940E-10    3.16183E-08    9.43286E-07    3.12980E-06
  3.12980E-06    9.43286E-07    6.32531E-08    3.86940E-10    1.38534E-08
  6.27774E-08    6.27774E-08    1.38534E-08    3.86940E-10    6.32531E-08
  9.43286E-07    3.73595E-06    2.54324E-06    3.73595E-06    9.43286E-07
  3.16183E-08    3.14205E-09    7.30223E-11    1.49176E-08    7.30216E-11
  3.14204E-09    3.16183E-08    9.43286E-07    3.73595E-06  

  4.59131E-05    4.59131E-05    2.59405E-05    9.43286E-07    2.84346E-07
  4.69220E-09    6.43885E-08    6.43885E-08    4.69221E-09    2.84346E-07
  9.43286E-07    2.59405E-05    4.59131E-05    4.59131E-05    3.12031E-05
  3.12980E-06    4.29155E-07    2.02499E-09    1.55657E-09    1.94765E-07
  1.55657E-09    2.02499E-09    4.29155E-07    3.12980E-06    3.12031E-05
  4.59131E-05    2.59405E-05    3.12980E-06    7.34547E-07    3.29423E-08
  6.53156E-08    1.31663E-07    1.31663E-07    6.53156E-08    3.29423E-08
  7.34547E-07    3.12980E-06    2.59405E-05    2.59405E-05    9.43286E-07
  4.29155E-07    3.29423E-08    6.02555E-08    5.49179E-08    8.13768E-08
  5.49179E-08    6.02555E-08    3.29423E-08    4.29155E-07    9.43286E-07
  4.90752E-06    9.43286E-07    2.84346E-07    2.02499E-09    6.53156E-08
  5.49179E-08    4.19696E-09    4.19696E-09    5.49179E-08    6.53156E-08